data_IRMOF-1

_audit_creation_method RASPA-1.0
_audit_creation_date 2014-11-24
_audit_author_name 'David Dubbeldam'

_citation_author_name        'M. Eddaoudi, J. Kim, N. Rosi, D. Vodak, J. Wachter, M. O. Keeffe, and O.M. Yaghi'
_citation_title              'Systematic design of pore size and functionality in isoreticular MOFs and their application in methane storage'
_citation_journal_abbrev     'Science'
_citation_journal_volume     295
_citation_page_first         469
_citation_page_last          472
_citation_year               2002

_cell_length_a    25.832
_cell_length_b    25.832
_cell_length_c    25.832
_cell_angle_alpha 90
_cell_angle_beta  90
_cell_angle_gamma 90
_cell_volume      17237.5

_symmetry_cell_setting          cubic
_symmetry_space_group_name_Hall 'P 1'
_symmetry_space_group_name_H-M  'P 1'
_symmetry_Int_Tables_number     1

_symmetry_equiv_pos_as_xyz 'x,y,z'

loop_
_atom_site_label
_atom_site_type_symbol
_atom_site_fract_x
_atom_site_fract_y
_atom_site_fract_z
_atom_site_charge
Zn1      Zn     0.293400000000     0.206600000000     0.206600000000     1.275      
O1       O      0.250000000000     0.250000000000     0.250000000000    -1.5        
O2       O      0.281900000000     0.218100000000     0.134000000000    -0.6        
C1       C      0.250000000000     0.250000000000     0.111300000000     0.475      
C2       C      0.250000000000     0.250000000000     0.053800000000     0.125      
C3       C      0.282900000000     0.217100000000     0.026900000000    -0.15       
H1       H      0.304900000000     0.195100000000     0.044800000000     0.15       
Zn1      Zn     0.793400000000     0.293400000000     0.206600000000     1.275      
O1       O      0.750000000000     0.250000000000     0.250000000000    -1.5        
O2       O      0.781900000000     0.281900000000     0.134000000000    -0.6        
C1       C      0.750000000000     0.250000000000     0.111300000000     0.475      
C2       C      0.750000000000     0.250000000000     0.053800000000     0.125      
C3       C      0.782900000000     0.282900000000     0.026900000000    -0.15       
H1       H      0.804900000000     0.304900000000     0.044800000000     0.15       
Zn1      Zn     0.706600000000     0.793400000000     0.206600000000     1.275      
O1       O      0.750000000000     0.750000000000     0.250000000000    -1.5        
O2       O      0.718100000000     0.781900000000     0.134000000000    -0.6        
C1       C      0.750000000000     0.750000000000     0.111300000000     0.475      
C2       C      0.750000000000     0.750000000000     0.053800000000     0.125      
C3       C      0.717100000000     0.782900000000     0.026900000000    -0.15       
H1       H      0.695100000000     0.804900000000     0.044800000000     0.15       
Zn1      Zn     0.206600000000     0.706600000000     0.206600000000     1.275      
O1       O      0.250000000000     0.750000000000     0.250000000000    -1.5        
O2       O      0.218100000000     0.718100000000     0.134000000000    -0.6        
C1       C      0.250000000000     0.750000000000     0.111300000000     0.475      
C2       C      0.250000000000     0.750000000000     0.053800000000     0.125      
C3       C      0.217100000000     0.717100000000     0.026900000000    -0.15       
H1       H      0.195100000000     0.695100000000     0.044800000000     0.15       
Zn1      Zn     0.293400000000     0.793400000000     0.793400000000     1.275      
O1       O      0.250000000000     0.750000000000     0.750000000000    -1.5        
O2       O      0.281900000000     0.781900000000     0.866000000000    -0.6        
C1       C      0.250000000000     0.750000000000     0.888700000000     0.475      
C2       C      0.250000000000     0.750000000000     0.946200000000     0.125      
C3       C      0.282900000000     0.782900000000     0.973100000000    -0.15       
H1       H      0.304900000000     0.804900000000     0.955200000000     0.15       
Zn1      Zn     0.206600000000     0.293400000000     0.793400000000     1.275      
O1       O      0.250000000000     0.250000000000     0.750000000000    -1.5        
O2       O      0.218100000000     0.281900000000     0.866000000000    -0.6        
C1       C      0.250000000000     0.250000000000     0.888700000000     0.475      
C2       C      0.250000000000     0.250000000000     0.946200000000     0.125      
C3       C      0.217100000000     0.282900000000     0.973100000000    -0.15       
H1       H      0.195100000000     0.304900000000     0.955200000000     0.15       
Zn1      Zn     0.706600000000     0.206600000000     0.793400000000     1.275      
O1       O      0.750000000000     0.250000000000     0.750000000000    -1.5        
O2       O      0.718100000000     0.218100000000     0.866000000000    -0.6        
C1       C      0.750000000000     0.250000000000     0.888700000000     0.475      
C2       C      0.750000000000     0.250000000000     0.946200000000     0.125      
C3       C      0.717100000000     0.217100000000     0.973100000000    -0.15       
H1       H      0.695100000000     0.195100000000     0.955200000000     0.15       
Zn1      Zn     0.793400000000     0.706600000000     0.793400000000     1.275      
O1       O      0.750000000000     0.750000000000     0.750000000000    -1.5        
O2       O      0.781900000000     0.718100000000     0.866000000000    -0.6        
C1       C      0.750000000000     0.750000000000     0.888700000000     0.475      
C2       C      0.750000000000     0.750000000000     0.946200000000     0.125      
C3       C      0.782900000000     0.717100000000     0.973100000000    -0.15       
H1       H      0.804900000000     0.695100000000     0.955200000000     0.15       
Zn1      Zn     0.206600000000     0.293400000000     0.206600000000     1.275      
O2       O      0.134000000000     0.281900000000     0.218100000000    -0.6        
C1       C      0.111300000000     0.250000000000     0.250000000000     0.475      
C2       C      0.053800000000     0.250000000000     0.250000000000     0.125      
C3       C      0.026900000000     0.282900000000     0.217100000000    -0.15       
H1       H      0.044800000000     0.304900000000     0.195100000000     0.15       
Zn1      Zn     0.706600000000     0.206600000000     0.206600000000     1.275      
O2       O      0.718100000000     0.134000000000     0.218100000000    -0.6        
C1       C      0.750000000000     0.111300000000     0.250000000000     0.475      
C2       C      0.750000000000     0.053800000000     0.250000000000     0.125      
C3       C      0.717100000000     0.026900000000     0.217100000000    -0.15       
H1       H      0.695100000000     0.044800000000     0.195100000000     0.15       
Zn1      Zn     0.793400000000     0.706600000000     0.206600000000     1.275      
O2       O      0.866000000000     0.718100000000     0.218100000000    -0.6        
C1       C      0.888700000000     0.750000000000     0.250000000000     0.475      
C2       C      0.946200000000     0.750000000000     0.250000000000     0.125      
C3       C      0.973100000000     0.717100000000     0.217100000000    -0.15       
H1       H      0.955200000000     0.695100000000     0.195100000000     0.15       
Zn1      Zn     0.293400000000     0.793400000000     0.206600000000     1.275      
O2       O      0.281900000000     0.866000000000     0.218100000000    -0.6        
C1       C      0.250000000000     0.888700000000     0.250000000000     0.475      
C2       C      0.250000000000     0.946200000000     0.250000000000     0.125      
C3       C      0.282900000000     0.973100000000     0.217100000000    -0.15       
H1       H      0.304900000000     0.955200000000     0.195100000000     0.15       
Zn1      Zn     0.206600000000     0.706600000000     0.793400000000     1.275      
O2       O      0.134000000000     0.718100000000     0.781900000000    -0.6        
C1       C      0.111300000000     0.750000000000     0.750000000000     0.475      
C2       C      0.053800000000     0.750000000000     0.750000000000     0.125      
C3       C      0.026900000000     0.717100000000     0.782900000000    -0.15       
H1       H      0.044800000000     0.695100000000     0.804900000000     0.15       
Zn1      Zn     0.293400000000     0.206600000000     0.793400000000     1.275      
O2       O      0.281900000000     0.134000000000     0.781900000000    -0.6        
C1       C      0.250000000000     0.111300000000     0.750000000000     0.475      
C2       C      0.250000000000     0.053800000000     0.750000000000     0.125      
C3       C      0.282900000000     0.026900000000     0.782900000000    -0.15       
H1       H      0.304900000000     0.044800000000     0.804900000000     0.15       
Zn1      Zn     0.793400000000     0.293400000000     0.793400000000     1.275      
O2       O      0.866000000000     0.281900000000     0.781900000000    -0.6        
C1       C      0.888700000000     0.250000000000     0.750000000000     0.475      
C2       C      0.946200000000     0.250000000000     0.750000000000     0.125      
C3       C      0.973100000000     0.282900000000     0.782900000000    -0.15       
H1       H      0.955200000000     0.304900000000     0.804900000000     0.15       
Zn1      Zn     0.706600000000     0.793400000000     0.793400000000     1.275      
O2       O      0.718100000000     0.866000000000     0.781900000000    -0.6        
C1       C      0.750000000000     0.888700000000     0.750000000000     0.475      
C2       C      0.750000000000     0.946200000000     0.750000000000     0.125      
C3       C      0.717100000000     0.973100000000     0.782900000000    -0.15       
H1       H      0.695100000000     0.955200000000     0.804900000000     0.15       
Zn1      Zn     0.206600000000     0.206600000000     0.293400000000     1.275      
O2       O      0.218100000000     0.134000000000     0.281900000000    -0.6        
C1       C      0.250000000000     0.111300000000     0.250000000000     0.475      
C2       C      0.250000000000     0.053800000000     0.250000000000     0.125      
C3       C      0.217100000000     0.026900000000     0.282900000000    -0.15       
H1       H      0.195100000000     0.044800000000     0.304900000000     0.15       
Zn1      Zn     0.206600000000     0.793400000000     0.706600000000     1.275      
O2       O      0.218100000000     0.866000000000     0.718100000000    -0.6        
C1       C      0.250000000000     0.888700000000     0.750000000000     0.475      
C2       C      0.250000000000     0.946200000000     0.750000000000     0.125      
C3       C      0.217100000000     0.973100000000     0.717100000000    -0.15       
H1       H      0.195100000000     0.955200000000     0.695100000000     0.15       
Zn1      Zn     0.206600000000     0.206600000000     0.706600000000     1.275      
O2       O      0.134000000000     0.218100000000     0.718100000000    -0.6        
C1       C      0.111300000000     0.250000000000     0.750000000000     0.475      
C2       C      0.053800000000     0.250000000000     0.750000000000     0.125      
C3       C      0.026900000000     0.217100000000     0.717100000000    -0.15       
H1       H      0.044800000000     0.195100000000     0.695100000000     0.15       
Zn1      Zn     0.793400000000     0.206600000000     0.706600000000     1.275      
O2       O      0.781900000000     0.134000000000     0.718100000000    -0.6        
C1       C      0.750000000000     0.111300000000     0.750000000000     0.475      
C2       C      0.750000000000     0.053800000000     0.750000000000     0.125      
C3       C      0.782900000000     0.026900000000     0.717100000000    -0.15       
H1       H      0.804900000000     0.044800000000     0.695100000000     0.15       
Zn1      Zn     0.793400000000     0.793400000000     0.706600000000     1.275      
O2       O      0.866000000000     0.781900000000     0.718100000000    -0.6        
C1       C      0.888700000000     0.750000000000     0.750000000000     0.475      
C2       C      0.946200000000     0.750000000000     0.750000000000     0.125      
C3       C      0.973100000000     0.782900000000     0.717100000000    -0.15       
H1       H      0.955200000000     0.804900000000     0.695100000000     0.15       
Zn1      Zn     0.793400000000     0.793400000000     0.293400000000     1.275      
O2       O      0.781900000000     0.866000000000     0.281900000000    -0.6        
C1       C      0.750000000000     0.888700000000     0.250000000000     0.475      
C2       C      0.750000000000     0.946200000000     0.250000000000     0.125      
C3       C      0.782900000000     0.973100000000     0.282900000000    -0.15       
H1       H      0.804900000000     0.955200000000     0.304900000000     0.15       
Zn1      Zn     0.206600000000     0.793400000000     0.293400000000     1.275      
O2       O      0.134000000000     0.781900000000     0.281900000000    -0.6        
C1       C      0.111300000000     0.750000000000     0.250000000000     0.475      
C2       C      0.053800000000     0.750000000000     0.250000000000     0.125      
C3       C      0.026900000000     0.782900000000     0.282900000000    -0.15       
H1       H      0.044800000000     0.804900000000     0.304900000000     0.15       
Zn1      Zn     0.793400000000     0.206600000000     0.293400000000     1.275      
O2       O      0.866000000000     0.218100000000     0.281900000000    -0.6        
C1       C      0.888700000000     0.250000000000     0.250000000000     0.475      
C2       C      0.946200000000     0.250000000000     0.250000000000     0.125      
C3       C      0.973100000000     0.217100000000     0.282900000000    -0.15       
H1       H      0.955200000000     0.195100000000     0.304900000000     0.15       
O2       O      0.718100000000     0.781900000000     0.866000000000    -0.6        
C3       C      0.717100000000     0.782900000000     0.973100000000    -0.15       
H1       H      0.695100000000     0.804900000000     0.955200000000     0.15       
O2       O      0.218100000000     0.718100000000     0.866000000000    -0.6        
C3       C      0.217100000000     0.717100000000     0.973100000000    -0.15       
H1       H      0.195100000000     0.695100000000     0.955200000000     0.15       
O2       O      0.281900000000     0.218100000000     0.866000000000    -0.6        
C3       C      0.282900000000     0.217100000000     0.973100000000    -0.15       
H1       H      0.304900000000     0.195100000000     0.955200000000     0.15       
O2       O      0.781900000000     0.281900000000     0.866000000000    -0.6        
C3       C      0.782900000000     0.282900000000     0.973100000000    -0.15       
H1       H      0.804900000000     0.304900000000     0.955200000000     0.15       
O2       O      0.718100000000     0.218100000000     0.134000000000    -0.6        
C3       C      0.717100000000     0.217100000000     0.026900000000    -0.15       
H1       H      0.695100000000     0.195100000000     0.044800000000     0.15       
O2       O      0.781900000000     0.718100000000     0.134000000000    -0.6        
C3       C      0.782900000000     0.717100000000     0.026900000000    -0.15       
H1       H      0.804900000000     0.695100000000     0.044800000000     0.15       
O2       O      0.281900000000     0.781900000000     0.134000000000    -0.6        
C3       C      0.282900000000     0.782900000000     0.026900000000    -0.15       
H1       H      0.304900000000     0.804900000000     0.044800000000     0.15       
O2       O      0.218100000000     0.281900000000     0.134000000000    -0.6        
C3       C      0.217100000000     0.282900000000     0.026900000000    -0.15       
H1       H      0.195100000000     0.304900000000     0.044800000000     0.15       
O2       O      0.866000000000     0.718100000000     0.781900000000    -0.6        
C3       C      0.973100000000     0.717100000000     0.782900000000    -0.15       
H1       H      0.955200000000     0.695100000000     0.804900000000     0.15       
O2       O      0.281900000000     0.866000000000     0.781900000000    -0.6        
C3       C      0.282900000000     0.973100000000     0.782900000000    -0.15       
H1       H      0.304900000000     0.955200000000     0.804900000000     0.15       
O2       O      0.134000000000     0.281900000000     0.781900000000    -0.6        
C3       C      0.026900000000     0.282900000000     0.782900000000    -0.15       
H1       H      0.044800000000     0.304900000000     0.804900000000     0.15       
O2       O      0.718100000000     0.134000000000     0.781900000000    -0.6        
C3       C      0.717100000000     0.026900000000     0.782900000000    -0.15       
H1       H      0.695100000000     0.044800000000     0.804900000000     0.15       
O2       O      0.866000000000     0.281900000000     0.218100000000    -0.6        
C3       C      0.973100000000     0.282900000000     0.217100000000    -0.15       
H1       H      0.955200000000     0.304900000000     0.195100000000     0.15       
O2       O      0.718100000000     0.866000000000     0.218100000000    -0.6        
C3       C      0.717100000000     0.973100000000     0.217100000000    -0.15       
H1       H      0.695100000000     0.955200000000     0.195100000000     0.15       
O2       O      0.134000000000     0.718100000000     0.218100000000    -0.6        
C3       C      0.026900000000     0.717100000000     0.217100000000    -0.15       
H1       H      0.044800000000     0.695100000000     0.195100000000     0.15       
O2       O      0.281900000000     0.134000000000     0.218100000000    -0.6        
C3       C      0.282900000000     0.026900000000     0.217100000000    -0.15       
H1       H      0.304900000000     0.044800000000     0.195100000000     0.15       
O2       O      0.781900000000     0.866000000000     0.718100000000    -0.6        
C3       C      0.782900000000     0.973100000000     0.717100000000    -0.15       
H1       H      0.804900000000     0.955200000000     0.695100000000     0.15       
O2       O      0.781900000000     0.134000000000     0.281900000000    -0.6        
C3       C      0.782900000000     0.026900000000     0.282900000000    -0.15       
H1       H      0.804900000000     0.044800000000     0.304900000000     0.15       
O2       O      0.866000000000     0.781900000000     0.281900000000    -0.6        
C3       C      0.973100000000     0.782900000000     0.282900000000    -0.15       
H1       H      0.955200000000     0.804900000000     0.304900000000     0.15       
O2       O      0.218100000000     0.866000000000     0.281900000000    -0.6        
C3       C      0.217100000000     0.973100000000     0.282900000000    -0.15       
H1       H      0.195100000000     0.955200000000     0.304900000000     0.15       
O2       O      0.134000000000     0.218100000000     0.281900000000    -0.6        
C3       C      0.026900000000     0.217100000000     0.282900000000    -0.15       
H1       H      0.044800000000     0.195100000000     0.304900000000     0.15       
O2       O      0.218100000000     0.134000000000     0.718100000000    -0.6        
C3       C      0.217100000000     0.026900000000     0.717100000000    -0.15       
H1       H      0.195100000000     0.044800000000     0.695100000000     0.15       
O2       O      0.866000000000     0.218100000000     0.718100000000    -0.6        
C3       C      0.973100000000     0.217100000000     0.717100000000    -0.15       
H1       H      0.955200000000     0.195100000000     0.695100000000     0.15       
O2       O      0.134000000000     0.781900000000     0.718100000000    -0.6        
C3       C      0.026900000000     0.782900000000     0.717100000000    -0.15       
H1       H      0.044800000000     0.804900000000     0.695100000000     0.15       
Zn1      Zn     0.293400000000     0.706600000000     0.706600000000     1.275      
O2       O      0.281900000000     0.718100000000     0.634000000000    -0.6        
C1       C      0.250000000000     0.750000000000     0.611300000000     0.475      
C2       C      0.250000000000     0.750000000000     0.553800000000     0.125      
C3       C      0.282900000000     0.717100000000     0.526900000000    -0.15       
H1       H      0.304900000000     0.695100000000     0.544800000000     0.15       
O2       O      0.781900000000     0.781900000000     0.634000000000    -0.6        
C1       C      0.750000000000     0.750000000000     0.611300000000     0.475      
C2       C      0.750000000000     0.750000000000     0.553800000000     0.125      
C3       C      0.782900000000     0.782900000000     0.526900000000    -0.15       
H1       H      0.804900000000     0.804900000000     0.544800000000     0.15       
Zn1      Zn     0.706600000000     0.293400000000     0.706600000000     1.275      
O2       O      0.718100000000     0.281900000000     0.634000000000    -0.6        
C1       C      0.750000000000     0.250000000000     0.611300000000     0.475      
C2       C      0.750000000000     0.250000000000     0.553800000000     0.125      
C3       C      0.717100000000     0.282900000000     0.526900000000    -0.15       
H1       H      0.695100000000     0.304900000000     0.544800000000     0.15       
O2       O      0.218100000000     0.218100000000     0.634000000000    -0.6        
C1       C      0.250000000000     0.250000000000     0.611300000000     0.475      
C2       C      0.250000000000     0.250000000000     0.553800000000     0.125      
C3       C      0.217100000000     0.217100000000     0.526900000000    -0.15       
H1       H      0.195100000000     0.195100000000     0.544800000000     0.15       
Zn1      Zn     0.293400000000     0.293400000000     0.293400000000     1.275      
O2       O      0.281900000000     0.281900000000     0.366000000000    -0.6        
C1       C      0.250000000000     0.250000000000     0.388700000000     0.475      
C2       C      0.250000000000     0.250000000000     0.446200000000     0.125      
C3       C      0.282900000000     0.282900000000     0.473100000000    -0.15       
H1       H      0.304900000000     0.304900000000     0.455200000000     0.15       
O2       O      0.218100000000     0.781900000000     0.366000000000    -0.6        
C1       C      0.250000000000     0.750000000000     0.388700000000     0.475      
C2       C      0.250000000000     0.750000000000     0.446200000000     0.125      
C3       C      0.217100000000     0.782900000000     0.473100000000    -0.15       
H1       H      0.195100000000     0.804900000000     0.455200000000     0.15       
Zn1      Zn     0.706600000000     0.706600000000     0.293400000000     1.275      
O2       O      0.718100000000     0.718100000000     0.366000000000    -0.6        
C1       C      0.750000000000     0.750000000000     0.388700000000     0.475      
C2       C      0.750000000000     0.750000000000     0.446200000000     0.125      
C3       C      0.717100000000     0.717100000000     0.473100000000    -0.15       
H1       H      0.695100000000     0.695100000000     0.455200000000     0.15       
O2       O      0.781900000000     0.218100000000     0.366000000000    -0.6        
C1       C      0.750000000000     0.250000000000     0.388700000000     0.475      
C2       C      0.750000000000     0.250000000000     0.446200000000     0.125      
C3       C      0.782900000000     0.217100000000     0.473100000000    -0.15       
H1       H      0.804900000000     0.195100000000     0.455200000000     0.15       
Zn1      Zn     0.706600000000     0.706600000000     0.706600000000     1.275      
O2       O      0.718100000000     0.634000000000     0.718100000000    -0.6        
C1       C      0.750000000000     0.611300000000     0.750000000000     0.475      
C2       C      0.750000000000     0.553800000000     0.750000000000     0.125      
C3       C      0.717100000000     0.526900000000     0.717100000000    -0.15       
H1       H      0.695100000000     0.544800000000     0.695100000000     0.15       
Zn1      Zn     0.293400000000     0.293400000000     0.706600000000     1.275      
O2       O      0.281900000000     0.366000000000     0.718100000000    -0.6        
C1       C      0.250000000000     0.388700000000     0.750000000000     0.475      
C2       C      0.250000000000     0.446200000000     0.750000000000     0.125      
C3       C      0.282900000000     0.473100000000     0.717100000000    -0.15       
H1       H      0.304900000000     0.455200000000     0.695100000000     0.15       
Zn1      Zn     0.293400000000     0.706600000000     0.293400000000     1.275      
O2       O      0.281900000000     0.634000000000     0.281900000000    -0.6        
C1       C      0.250000000000     0.611300000000     0.250000000000     0.475      
C2       C      0.250000000000     0.553800000000     0.250000000000     0.125      
C3       C      0.282900000000     0.526900000000     0.282900000000    -0.15       
H1       H      0.304900000000     0.544800000000     0.304900000000     0.15       
Zn1      Zn     0.706600000000     0.293400000000     0.293400000000     1.275      
O2       O      0.718100000000     0.366000000000     0.281900000000    -0.6        
C1       C      0.750000000000     0.388700000000     0.250000000000     0.475      
C2       C      0.750000000000     0.446200000000     0.250000000000     0.125      
C3       C      0.717100000000     0.473100000000     0.282900000000    -0.15       
H1       H      0.695100000000     0.455200000000     0.304900000000     0.15       
O2       O      0.218100000000     0.634000000000     0.781900000000    -0.6        
C1       C      0.250000000000     0.611300000000     0.750000000000     0.475      
C2       C      0.250000000000     0.553800000000     0.750000000000     0.125      
C3       C      0.217100000000     0.526900000000     0.782900000000    -0.15       
H1       H      0.195100000000     0.544800000000     0.804900000000     0.15       
O2       O      0.218100000000     0.366000000000     0.218100000000    -0.6        
C1       C      0.250000000000     0.388700000000     0.250000000000     0.475      
C2       C      0.250000000000     0.446200000000     0.250000000000     0.125      
C3       C      0.217100000000     0.473100000000     0.217100000000    -0.15       
H1       H      0.195100000000     0.455200000000     0.195100000000     0.15       
O2       O      0.781900000000     0.634000000000     0.218100000000    -0.6        
C1       C      0.750000000000     0.611300000000     0.250000000000     0.475      
C2       C      0.750000000000     0.553800000000     0.250000000000     0.125      
C3       C      0.782900000000     0.526900000000     0.217100000000    -0.15       
H1       H      0.804900000000     0.544800000000     0.195100000000     0.15       
O2       O      0.781900000000     0.366000000000     0.781900000000    -0.6        
C1       C      0.750000000000     0.388700000000     0.750000000000     0.475      
C2       C      0.750000000000     0.446200000000     0.750000000000     0.125      
C3       C      0.782900000000     0.473100000000     0.782900000000    -0.15       
H1       H      0.804900000000     0.455200000000     0.804900000000     0.15       
O2       O      0.718100000000     0.281900000000     0.366000000000    -0.6        
C3       C      0.717100000000     0.282900000000     0.473100000000    -0.15       
H1       H      0.695100000000     0.304900000000     0.455200000000     0.15       
O2       O      0.218100000000     0.218100000000     0.366000000000    -0.6        
C3       C      0.217100000000     0.217100000000     0.473100000000    -0.15       
H1       H      0.195100000000     0.195100000000     0.455200000000     0.15       
O2       O      0.281900000000     0.718100000000     0.366000000000    -0.6        
C3       C      0.282900000000     0.717100000000     0.473100000000    -0.15       
H1       H      0.304900000000     0.695100000000     0.455200000000     0.15       
O2       O      0.781900000000     0.781900000000     0.366000000000    -0.6        
C3       C      0.782900000000     0.782900000000     0.473100000000    -0.15       
H1       H      0.804900000000     0.804900000000     0.455200000000     0.15       
O2       O      0.718100000000     0.718100000000     0.634000000000    -0.6        
C3       C      0.717100000000     0.717100000000     0.526900000000    -0.15       
H1       H      0.695100000000     0.695100000000     0.544800000000     0.15       
O2       O      0.781900000000     0.218100000000     0.634000000000    -0.6        
C3       C      0.782900000000     0.217100000000     0.526900000000    -0.15       
H1       H      0.804900000000     0.195100000000     0.544800000000     0.15       
O2       O      0.281900000000     0.281900000000     0.634000000000    -0.6        
C3       C      0.282900000000     0.282900000000     0.526900000000    -0.15       
H1       H      0.304900000000     0.304900000000     0.544800000000     0.15       
O2       O      0.218100000000     0.781900000000     0.634000000000    -0.6        
C3       C      0.217100000000     0.782900000000     0.526900000000    -0.15       
H1       H      0.195100000000     0.804900000000     0.544800000000     0.15       
O2       O      0.281900000000     0.366000000000     0.281900000000    -0.6        
C3       C      0.282900000000     0.473100000000     0.282900000000    -0.15       
H1       H      0.304900000000     0.455200000000     0.304900000000     0.15       
O2       O      0.718100000000     0.634000000000     0.281900000000    -0.6        
C3       C      0.717100000000     0.526900000000     0.282900000000    -0.15       
H1       H      0.695100000000     0.544800000000     0.304900000000     0.15       
O2       O      0.718100000000     0.366000000000     0.718100000000    -0.6        
C3       C      0.717100000000     0.473100000000     0.717100000000    -0.15       
H1       H      0.695100000000     0.455200000000     0.695100000000     0.15       
O2       O      0.281900000000     0.634000000000     0.718100000000    -0.6        
C3       C      0.282900000000     0.526900000000     0.717100000000    -0.15       
H1       H      0.304900000000     0.544800000000     0.695100000000     0.15       
O2       O      0.781900000000     0.366000000000     0.218100000000    -0.6        
C3       C      0.782900000000     0.473100000000     0.217100000000    -0.15       
H1       H      0.804900000000     0.455200000000     0.195100000000     0.15       
O2       O      0.781900000000     0.634000000000     0.781900000000    -0.6        
C3       C      0.782900000000     0.526900000000     0.782900000000    -0.15       
H1       H      0.804900000000     0.544800000000     0.804900000000     0.15       
O2       O      0.218100000000     0.366000000000     0.781900000000    -0.6        
C3       C      0.217100000000     0.473100000000     0.782900000000    -0.15       
H1       H      0.195100000000     0.455200000000     0.804900000000     0.15       
O2       O      0.218100000000     0.634000000000     0.218100000000    -0.6        
C3       C      0.217100000000     0.526900000000     0.217100000000    -0.15       
H1       H      0.195100000000     0.544800000000     0.195100000000     0.15       
O2       O      0.634000000000     0.281900000000     0.718100000000    -0.6        
C1       C      0.611300000000     0.250000000000     0.750000000000     0.475      
C2       C      0.553800000000     0.250000000000     0.750000000000     0.125      
C3       C      0.526900000000     0.282900000000     0.717100000000    -0.15       
H1       H      0.544800000000     0.304900000000     0.695100000000     0.15       
O2       O      0.366000000000     0.718100000000     0.718100000000    -0.6        
C1       C      0.388700000000     0.750000000000     0.750000000000     0.475      
C2       C      0.446200000000     0.750000000000     0.750000000000     0.125      
C3       C      0.473100000000     0.717100000000     0.717100000000    -0.15       
H1       H      0.455200000000     0.695100000000     0.695100000000     0.15       
O2       O      0.634000000000     0.718100000000     0.281900000000    -0.6        
C1       C      0.611300000000     0.750000000000     0.250000000000     0.475      
C2       C      0.553800000000     0.750000000000     0.250000000000     0.125      
C3       C      0.526900000000     0.717100000000     0.282900000000    -0.15       
H1       H      0.544800000000     0.695100000000     0.304900000000     0.15       
O2       O      0.366000000000     0.281900000000     0.281900000000    -0.6        
C1       C      0.388700000000     0.250000000000     0.250000000000     0.475      
C2       C      0.446200000000     0.250000000000     0.250000000000     0.125      
C3       C      0.473100000000     0.282900000000     0.282900000000    -0.15       
H1       H      0.455200000000     0.304900000000     0.304900000000     0.15       
O2       O      0.634000000000     0.218100000000     0.218100000000    -0.6        
C1       C      0.611300000000     0.250000000000     0.250000000000     0.475      
C2       C      0.553800000000     0.250000000000     0.250000000000     0.125      
C3       C      0.526900000000     0.217100000000     0.217100000000    -0.15       
H1       H      0.544800000000     0.195100000000     0.195100000000     0.15       
O2       O      0.366000000000     0.781900000000     0.218100000000    -0.6        
C1       C      0.388700000000     0.750000000000     0.250000000000     0.475      
C2       C      0.446200000000     0.750000000000     0.250000000000     0.125      
C3       C      0.473100000000     0.782900000000     0.217100000000    -0.15       
H1       H      0.455200000000     0.804900000000     0.195100000000     0.15       
O2       O      0.634000000000     0.781900000000     0.781900000000    -0.6        
C1       C      0.611300000000     0.750000000000     0.750000000000     0.475      
C2       C      0.553800000000     0.750000000000     0.750000000000     0.125      
C3       C      0.526900000000     0.782900000000     0.782900000000    -0.15       
H1       H      0.544800000000     0.804900000000     0.804900000000     0.15       
O2       O      0.366000000000     0.218100000000     0.781900000000    -0.6        
C1       C      0.388700000000     0.250000000000     0.750000000000     0.475      
C2       C      0.446200000000     0.250000000000     0.750000000000     0.125      
C3       C      0.473100000000     0.217100000000     0.782900000000    -0.15       
H1       H      0.455200000000     0.195100000000     0.804900000000     0.15       
O2       O      0.366000000000     0.718100000000     0.281900000000    -0.6        
C3       C      0.473100000000     0.717100000000     0.282900000000    -0.15       
H1       H      0.455200000000     0.695100000000     0.304900000000     0.15       
O2       O      0.634000000000     0.281900000000     0.281900000000    -0.6        
C3       C      0.526900000000     0.282900000000     0.282900000000    -0.15       
H1       H      0.544800000000     0.304900000000     0.304900000000     0.15       
O2       O      0.366000000000     0.281900000000     0.718100000000    -0.6        
C3       C      0.473100000000     0.282900000000     0.717100000000    -0.15       
H1       H      0.455200000000     0.304900000000     0.695100000000     0.15       
O2       O      0.634000000000     0.718100000000     0.718100000000    -0.6        
C3       C      0.526900000000     0.717100000000     0.717100000000    -0.15       
H1       H      0.544800000000     0.695100000000     0.695100000000     0.15       
O2       O      0.366000000000     0.781900000000     0.781900000000    -0.6        
C3       C      0.473100000000     0.782900000000     0.782900000000    -0.15       
H1       H      0.455200000000     0.804900000000     0.804900000000     0.15       
O2       O      0.634000000000     0.218100000000     0.781900000000    -0.6        
C3       C      0.526900000000     0.217100000000     0.782900000000    -0.15       
H1       H      0.544800000000     0.195100000000     0.804900000000     0.15       
O2       O      0.366000000000     0.218100000000     0.218100000000    -0.6        
C3       C      0.473100000000     0.217100000000     0.217100000000    -0.15       
H1       H      0.455200000000     0.195100000000     0.195100000000     0.15       
O2       O      0.634000000000     0.781900000000     0.218100000000    -0.6        
C3       C      0.526900000000     0.782900000000     0.217100000000    -0.15       
H1       H      0.544800000000     0.804900000000     0.195100000000     0.15       


