data_IRMOF-1

_audit_creation_method RASPA-1.0
_audit_creation_date 2014-11-24
_audit_author_name 'David Dubbeldam'

_citation_author_name        'M. Eddaoudi, J. Kim, N. Rosi, D. Vodak, J. Wachter, M. O. Keeffe, and O.M. Yaghi'
_citation_title              'Systematic design of pore size and functionality in isoreticular MOFs and their application in methane storage'
_citation_journal_abbrev     'Science'
_citation_journal_volume     295
_citation_page_first         469
_citation_page_last          472
_citation_year               2002

_cell_length_a    25.832
_cell_length_b    25.832
_cell_length_c    25.832
_cell_angle_alpha 90
_cell_angle_beta  90
_cell_angle_gamma 90
_cell_volume      17237.5

_symmetry_cell_setting          cubic
_symmetry_space_group_name_Hall 'P 1'
_symmetry_space_group_name_H-M  'P 1'
_symmetry_Int_Tables_number     1

_symmetry_equiv_pos_as_xyz 'x,y,z'

loop_
_atom_site_label
_atom_site_type_symbol
_atom_site_fract_x
_atom_site_fract_y
_atom_site_fract_z
_atom_site_charge
Zn1      Zn     0.293401939717     0.206280601642     0.206156423471    -0.6        
Zn1      Zn     0.793401939717     0.293719398359     0.206156423475    -0.6        
Zn1      Zn     0.706598060173     0.793719398351     0.206156423467    -0.6        
Zn1      Zn     0.206598060172     0.706280601649     0.206156423463    -0.6        
Zn1      Zn     0.293401939827     0.793719398351     0.793843576533    -0.6        
Zn1      Zn     0.206598060283     0.293719398359     0.793843576525    -0.6        
Zn1      Zn     0.706598060283     0.206280601642     0.793843576529    -0.6        
Zn1      Zn     0.793401939828     0.706280601649     0.793843576537    -0.6        
Zn1      Zn     0.206598774920     0.293717862133     0.206156846817    -0.6        
Zn1      Zn     0.706598774921     0.206282137867     0.206156846820    -0.6        
Zn1      Zn     0.793401224968     0.706282137859     0.206156846828    -0.6        
Zn1      Zn     0.293401224968     0.793717862140     0.206156846825    -0.6        
Zn1      Zn     0.206598775032     0.706282137859     0.793843153172    -0.6        
Zn1      Zn     0.293401225079     0.206282137867     0.793843153180    -0.6        
Zn1      Zn     0.793401225080     0.293717862133     0.793843153183    -0.6        
Zn1      Zn     0.706598775032     0.793717862140     0.793843153175    -0.6        
Zn1      Zn     0.206281871353     0.206597409942     0.293843327526    -0.6        
Zn1      Zn     0.206281871463     0.793402590066     0.706156672483    -0.6        
Zn1      Zn     0.206280868165     0.206599425270     0.706156597767    -0.6        
Zn1      Zn     0.793718128647     0.206597409942     0.706156672474    -0.6        
Zn1      Zn     0.793719131945     0.793400574722     0.706156597758    -0.6        
Zn1      Zn     0.793718128537     0.793402590066     0.293843327517    -0.6        
Zn1      Zn     0.206280868055     0.793400574722     0.293843402242    -0.6        
Zn1      Zn     0.793719131835     0.206599425270     0.293843402233    -0.6        
Zn1      Zn     0.293719131945     0.706599425278     0.706156597755    -0.6        
Zn1      Zn     0.706280868165     0.293400574731     0.706156597770    -0.6        
Zn1      Zn     0.293719131835     0.293400574731     0.293843402230    -0.6        
Zn1      Zn     0.706280868055     0.706599425278     0.293843402245    -0.6        
Zn1      Zn     0.706281871463     0.706597409933     0.706156672487    -0.6        
Zn1      Zn     0.293718128647     0.293402590058     0.706156672471    -0.6        
Zn1      Zn     0.293718128537     0.706597409933     0.293843327513    -0.6        
Zn1      Zn     0.706281871353     0.293402590058     0.293843327529    -0.6        
O1       O      0.250000432947     0.249999102191     0.250000000006     0.475      
O1       O      0.750000432947     0.250000897809     0.250000000010     0.475      
O1       O      0.749999566941     0.750000897808     0.250000000010     0.475      
O1       O      0.249999566941     0.749999102192     0.250000000006     0.475      
O1       O      0.250000433059     0.750000897808     0.749999999990     0.475      
O1       O      0.249999567053     0.250000897809     0.749999999990     0.475      
O1       O      0.749999567053     0.249999102191     0.749999999994     0.475      
O1       O      0.750000433059     0.749999102192     0.749999999994     0.475      
O2       O      0.272235464766     0.213260344424     0.135076687949     0.125      
O2       O      0.772235464764     0.286739655582     0.135076687952     0.125      
O2       O      0.727764535106     0.786739655532     0.135076687943     0.125      
O2       O      0.227764535107     0.713260344464     0.135076687940     0.125      
O2       O      0.272235464894     0.786739655532     0.864923312057     0.125      
O2       O      0.227764535236     0.286739655582     0.864923312048     0.125      
O2       O      0.727764535234     0.213260344424     0.864923312051     0.125      
O2       O      0.772235464893     0.713260344464     0.864923312060     0.125      
O2       O      0.135097251135     0.273770383785     0.212017887476     0.125      
O2       O      0.713484760479     0.135066313600     0.226782147087     0.125      
O2       O      0.864902748748     0.726229616239     0.212017887451     0.125      
O2       O      0.286515239447     0.864933686400     0.226782147129     0.125      
O2       O      0.135097251252     0.726229616239     0.787982112549     0.125      
O2       O      0.286515239521     0.135066313600     0.773217852913     0.125      
O2       O      0.864902748865     0.273770383785     0.787982112524     0.125      
O2       O      0.713484760553     0.864933686400     0.773217852871     0.125      
O2       O      0.226229237839     0.135095885115     0.287981925240     0.125      
O2       O      0.226229237982     0.864904114886     0.712018074734     0.125      
O2       O      0.135065029671     0.213485186675     0.726781910750     0.125      
O2       O      0.773770762161     0.135095885115     0.712018074760     0.125      
O2       O      0.864934970445     0.786514813286     0.726781910710     0.125      
O2       O      0.773770762018     0.864904114886     0.287981925266     0.125      
O2       O      0.135065029555     0.786514813286     0.273218089290     0.125      
O2       O      0.864934970329     0.213485186675     0.273218089250     0.125      
O2       O      0.727764980346     0.786738812980     0.864923020396     0.125      
O2       O      0.227764980348     0.713261187015     0.864923020393     0.125      
O2       O      0.272235019782     0.213261187065     0.864923020402     0.125      
O2       O      0.772235019781     0.286738812940     0.864923020405     0.125      
O2       O      0.727764980218     0.213261187065     0.135076979598     0.125      
O2       O      0.772235019652     0.713261187015     0.135076979607     0.125      
O2       O      0.272235019654     0.786738812980     0.135076979604     0.125      
O2       O      0.227764980219     0.286738812940     0.135076979595     0.125      
O2       O      0.864903491660     0.726228051317     0.787982648210     0.125      
O2       O      0.286515999880     0.864935387541     0.773218813657     0.125      
O2       O      0.135096508457     0.273771948659     0.787982648235     0.125      
O2       O      0.713484000194     0.135064612459     0.773218813615     0.125      
O2       O      0.864903491543     0.273771948659     0.212017351765     0.125      
O2       O      0.713484000120     0.864935387541     0.226781186343     0.125      
O2       O      0.135096508340     0.726228051317     0.212017351790     0.125      
O2       O      0.286515999806     0.135064612459     0.226781186385     0.125      
O2       O      0.773771570302     0.864902125496     0.712017164264     0.125      
O2       O      0.773771570159     0.135097874504     0.287982835762     0.125      
O2       O      0.864934103474     0.786516426218     0.273218577183     0.125      
O2       O      0.226228429698     0.864902125496     0.287982835736     0.125      
O2       O      0.135065896410     0.213483573821     0.273218577223     0.125      
O2       O      0.226228429841     0.135097874504     0.712017164238     0.125      
O2       O      0.864934103590     0.213483573821     0.726781422777     0.125      
O2       O      0.135065896526     0.786516426218     0.726781422817     0.125      
O2       O      0.286739913614     0.727766005481     0.635076852252     0.125      
O2       O      0.786739913611     0.772233994520     0.635076852255     0.125      
O2       O      0.713260086443     0.272233994502     0.635076852272     0.125      
O2       O      0.213260086446     0.227766005498     0.635076852268     0.125      
O2       O      0.286739913557     0.272233994502     0.364923147728     0.125      
O2       O      0.213260086389     0.772233994520     0.364923147745     0.125      
O2       O      0.713260086386     0.727766005481     0.364923147748     0.125      
O2       O      0.786739913554     0.227766005498     0.364923147732     0.125      
O2       O      0.726229237986     0.635095885114     0.712018074737     0.125      
O2       O      0.273770762161     0.364904114885     0.712018074756     0.125      
O2       O      0.273770762014     0.635095885114     0.287981925263     0.125      
O2       O      0.726229237839     0.364904114885     0.287981925244     0.125      
O2       O      0.213484760550     0.635066313600     0.773217852864     0.125      
O2       O      0.213484760473     0.364933686400     0.226782147087     0.125      
O2       O      0.786515239450     0.635066313600     0.226782147136     0.125      
O2       O      0.786515239527     0.364933686400     0.773217852913     0.125      
O2       O      0.713261444927     0.272236489861     0.364923184738     0.125      
O2       O      0.213261444929     0.227763510138     0.364923184735     0.125      
O2       O      0.286738555016     0.727763510156     0.364923184718     0.125      
O2       O      0.786738555014     0.772236489844     0.364923184721     0.125      
O2       O      0.713261444984     0.727763510156     0.635076815282     0.125      
O2       O      0.786738555071     0.227763510138     0.635076815265     0.125      
O2       O      0.286738555073     0.272236489861     0.635076815262     0.125      
O2       O      0.213261444986     0.772236489844     0.635076815279     0.125      
O2       O      0.273771570155     0.364902125496     0.287982835759     0.125      
O2       O      0.726228429698     0.635097874504     0.287982835740     0.125      
O2       O      0.726228429845     0.364902125496     0.712017164241     0.125      
O2       O      0.273771570302     0.635097874504     0.712017164260     0.125      
O2       O      0.786515999809     0.364935387541     0.226781186392     0.125      
O2       O      0.786515999886     0.635064612459     0.773218813657     0.125      
O2       O      0.213484000191     0.364935387541     0.773218813608     0.125      
O2       O      0.213484000114     0.635064612459     0.226781186343     0.125      
O2       O      0.635065029672     0.286514813329     0.726781910755     0.125      
O2       O      0.364934970445     0.713485186713     0.726781910708     0.125      
O2       O      0.635065029555     0.713485186713     0.273218089292     0.125      
O2       O      0.364934970328     0.286514813329     0.273218089245     0.125      
O2       O      0.635097251136     0.226229616211     0.212017887482     0.125      
O2       O      0.364902748748     0.773770383763     0.212017887451     0.125      
O2       O      0.635097251252     0.773770383763     0.787982112549     0.125      
O2       O      0.364902748864     0.226229616211     0.787982112518     0.125      
O2       O      0.364934103474     0.713483573778     0.273218577179     0.125      
O2       O      0.635065896409     0.286516426180     0.273218577225     0.125      
O2       O      0.364934103591     0.286516426180     0.726781422775     0.125      
O2       O      0.635065896526     0.713483573778     0.726781422821     0.125      
O2       O      0.364903491659     0.773771948687     0.787982648204     0.125      
O2       O      0.635096508457     0.226228051339     0.787982648235     0.125      
O2       O      0.364903491543     0.226228051339     0.212017351765     0.125      
O2       O      0.635096508341     0.773771948687     0.212017351796     0.125      
C1       C      0.250000188284     0.249999648705     0.112403967629    -0.15       
C1       C      0.750000188282     0.250000351300     0.112403967632    -0.15       
C1       C      0.749999811608     0.750000351256     0.112403967632    -0.15       
C1       C      0.249999811610     0.749999648739     0.112403967629    -0.15       
C1       C      0.250000188392     0.750000351256     0.887596032368    -0.15       
C1       C      0.249999811718     0.250000351300     0.887596032368    -0.15       
C1       C      0.749999811716     0.249999648705     0.887596032371    -0.15       
C1       C      0.750000188390     0.749999648739     0.887596032371    -0.15       
C1       C      0.112427004589     0.243272648313     0.242258070561    -0.15       
C1       C      0.743273796068     0.112427526862     0.257742771985    -0.15       
C1       C      0.887572995295     0.756727351715     0.242258070533    -0.15       
C1       C      0.256726203823     0.887572473138     0.257742771994    -0.15       
C1       C      0.112427004705     0.756727351715     0.757741929467    -0.15       
C1       C      0.256726203932     0.112427526862     0.742257228015    -0.15       
C1       C      0.887572995411     0.243272648313     0.757741929439    -0.15       
C1       C      0.743273796177     0.887572473138     0.742257228006    -0.15       
C1       C      0.256727011977     0.112425681441     0.257741748578    -0.15       
C1       C      0.256727012086     0.887574318559     0.742258251430    -0.15       
C1       C      0.112426203712     0.243274135744     0.757742591024    -0.15       
C1       C      0.743272988023     0.112425681441     0.742258251422    -0.15       
C1       C      0.887573796404     0.756725864229     0.757742590996    -0.15       
C1       C      0.743272987914     0.887574318559     0.257741748570    -0.15       
C1       C      0.112426203596     0.756725864229     0.242257409004    -0.15       
C1       C      0.887573796288     0.243274135744     0.242257408976    -0.15       
C1       C      0.250000576374     0.750001058787     0.612403967623    -0.15       
C1       C      0.750000576372     0.749998941214     0.612403967626    -0.15       
C1       C      0.749999423673     0.249998941197     0.612403967626    -0.15       
C1       C      0.249999423675     0.250001058802     0.612403967623    -0.15       
C1       C      0.250000576327     0.249998941197     0.387596032374    -0.15       
C1       C      0.249999423628     0.749998941214     0.387596032374    -0.15       
C1       C      0.749999423626     0.750001058787     0.387596032377    -0.15       
C1       C      0.750000576325     0.250001058802     0.387596032377    -0.15       
C1       C      0.756727012091     0.612425681441     0.742258251432    -0.15       
C1       C      0.243272988022     0.387574318559     0.742258251416    -0.15       
C1       C      0.243272987909     0.612425681441     0.257741748568    -0.15       
C1       C      0.756727011978     0.387574318559     0.257741748584    -0.15       
C1       C      0.243273796175     0.612427526862     0.742257228000    -0.15       
C1       C      0.243273796063     0.387572473138     0.257742771984    -0.15       
C1       C      0.756726203825     0.612427526862     0.257742772000    -0.15       
C1       C      0.756726203937     0.387572473138     0.742257228016    -0.15       
C1       C      0.612426203712     0.256725864257     0.757742591026    -0.15       
C1       C      0.387573796404     0.743274135773     0.757742590992    -0.15       
C1       C      0.612426203596     0.743274135773     0.242257409008    -0.15       
C1       C      0.387573796288     0.256725864257     0.242257408974    -0.15       
C1       C      0.612427004589     0.256727351686     0.242258070565    -0.15       
C1       C      0.387572995295     0.743272648284     0.242258070532    -0.15       
C1       C      0.612427004705     0.743272648284     0.757741929468    -0.15       
C1       C      0.387572995411     0.256727351686     0.757741929435    -0.15       
C2       C      0.250000093147     0.249999828127     0.055073269906     0.15       
C2       C      0.750000093145     0.250000171878     0.055073269909     0.15       
C2       C      0.749999906799     0.750000171854     0.055073269909     0.15       
C2       C      0.249999906801     0.749999828141     0.055073269906     0.15       
C2       C      0.250000093201     0.750000171854     0.944926730091     0.15       
C2       C      0.249999906855     0.250000171878     0.944926730091     0.15       
C2       C      0.749999906853     0.249999828127     0.944926730094     0.15       
C2       C      0.750000093199     0.749999828141     0.944926730094     0.15       
C2       C      0.055085519210     0.242811669095     0.241788545677     0.15       
C2       C      0.742812032911     0.055086042415     0.258211648219     0.15       
C2       C      0.944914480675     0.757188330918     0.241788545663     0.15       
C2       C      0.257187966980     0.944913957585     0.258211648228     0.15       
C2       C      0.055085519325     0.757188330918     0.758211454337     0.15       
C2       C      0.257187967089     0.055086042415     0.741788351781     0.15       
C2       C      0.944914480790     0.242811669095     0.758211454323     0.15       
C2       C      0.742812033020     0.944913957585     0.741788351772     0.15       
C2       C      0.257188162848     0.055084198020     0.258211364192     0.15       
C2       C      0.257188162958     0.944915801980     0.741788635817     0.15       
C2       C      0.055084721224     0.242812200960     0.758211558012     0.15       
C2       C      0.742811837152     0.055084198020     0.741788635808     0.15       
C2       C      0.944915278892     0.757187799026     0.758211557998     0.15       
C2       C      0.742811837042     0.944915801980     0.258211364183     0.15       
C2       C      0.055084721108     0.757187799026     0.241788442002     0.15       
C2       C      0.944915278776     0.242812200960     0.241788441988     0.15       
C2       C      0.250000286281     0.750000525395     0.555073269903     0.15       
C2       C      0.750000286278     0.749999474605     0.555073269906     0.15       
C2       C      0.749999713742     0.249999474597     0.555073269906     0.15       
C2       C      0.249999713745     0.250000525403     0.555073269903     0.15       
C2       C      0.250000286258     0.249999474597     0.444926730094     0.15       
C2       C      0.249999713722     0.749999474605     0.444926730094     0.15       
C2       C      0.749999713719     0.750000525395     0.444926730097     0.15       
C2       C      0.750000286255     0.250000525403     0.444926730097     0.15       
C2       C      0.757188162963     0.555084198020     0.741788635818     0.15       
C2       C      0.242811837150     0.444915801980     0.741788635802     0.15       
C2       C      0.242811837037     0.555084198020     0.258211364182     0.15       
C2       C      0.757188162850     0.444915801980     0.258211364198     0.15       
C2       C      0.242812033019     0.555086042415     0.741788351766     0.15       
C2       C      0.242812032905     0.444913957585     0.258211648218     0.15       
C2       C      0.757187966981     0.555086042415     0.258211648234     0.15       
C2       C      0.757187967095     0.444913957585     0.741788351782     0.15       
C2       C      0.555084721224     0.257187799040     0.758211558012     0.15       
C2       C      0.444915278892     0.742812200975     0.758211557996     0.15       
C2       C      0.555084721108     0.742812200975     0.241788442004     0.15       
C2       C      0.444915278776     0.257187799040     0.241788441988     0.15       
C2       C      0.555085519210     0.257188330904     0.241788545680     0.15       
C2       C      0.444914480674     0.742811669081     0.241788545663     0.15       
C2       C      0.555085519326     0.742811669081     0.758211454337     0.15       
C2       C      0.444914480790     0.257188330904     0.758211454320     0.15       
C3       C      0.273725377086     0.210319155302     0.026808392191     1.275      
C3       C      0.773725377084     0.289680844703     0.026808392195     1.275      
C3       C      0.726274622887     0.789680844688     0.026808392185     1.275      
C3       C      0.226274622890     0.710319155306     0.026808392182     1.275      
C3       C      0.273725377113     0.789680844688     0.973191607815     1.275      
C3       C      0.226274622916     0.289680844703     0.973191607805     1.275      
C3       C      0.726274622914     0.210319155302     0.973191607809     1.275      
C3       C      0.773725377110     0.710319155306     0.973191607818     1.275      
C3       C      0.026812730047     0.275081898921     0.208684714670     1.275      
C3       C      0.710197898302     0.026811515185     0.225447822275     1.275      
C3       C      0.973187269838     0.724918101086     0.208684714663     1.275      
C3       C      0.289802101628     0.973188484814     0.225447822323     1.275      
C3       C      0.026812730162     0.724918101086     0.791315285337     1.275      
C3       C      0.289802101698     0.026811515185     0.774552177725     1.275      
C3       C      0.973187269953     0.275081898921     0.791315285330     1.275      
C3       C      0.710197898372     0.973188484814     0.774552177677     1.275      
C3       C      0.224918019898     0.026811364578     0.291315242096     1.275      
C3       C      0.224918020047     0.973188635422     0.708684757875     1.275      
C3       C      0.026810239641     0.210197981333     0.725447777180     1.275      
C3       C      0.775081980102     0.026811364578     0.708684757904     1.275      
C3       C      0.973189760475     0.789802018660     0.725447777172     1.275      
C3       C      0.775081979953     0.973188635422     0.291315242125     1.275      
C3       C      0.026810239525     0.789802018660     0.274552222828     1.275      
C3       C      0.973189760359     0.210197981333     0.274552222820     1.275      
C3       C      0.726274714051     0.789680677615     0.973191282047     1.275      
C3       C      0.226274714053     0.710319322380     0.973191282044     1.275      
C3       C      0.273725285975     0.210319322395     0.973191282053     1.275      
C3       C      0.773725285973     0.289680677611     0.973191282057     1.275      
C3       C      0.726274714025     0.210319322395     0.026808717947     1.275      
C3       C      0.773725285947     0.710319322380     0.026808717956     1.275      
C3       C      0.273725285949     0.789680677615     0.026808717953     1.275      
C3       C      0.226274714027     0.289680677611     0.026808717943     1.275      
C3       C      0.973188428977     0.724917843413     0.791315339276     1.275      
C3       C      0.289802193525     0.973190601255     0.774552321715     1.275      
C3       C      0.026811571139     0.275082156581     0.791315339283     1.275      
C3       C      0.710197806546     0.026809398745     0.774552321667     1.275      
C3       C      0.973188428861     0.275082156581     0.208684660717     1.275      
C3       C      0.710197806475     0.973190601255     0.225447678285     1.275      
C3       C      0.026811571023     0.724917843413     0.208684660724     1.275      
C3       C      0.289802193454     0.026809398745     0.225447678333     1.275      
C3       C      0.775082075390     0.973187063392     0.708684617273     1.275      
C3       C      0.775082075240     0.026812936608     0.291315382756     1.275      
C3       C      0.973189325594     0.789802276662     0.274552276478     1.275      
C3       C      0.224917924610     0.973187063392     0.291315382727     1.275      
C3       C      0.026810674290     0.210197723345     0.274552276485     1.275      
C3       C      0.224917924760     0.026812936608     0.708684617244     1.275      
C3       C      0.973189325710     0.210197723345     0.725447723515     1.275      
C3       C      0.026810674406     0.789802276662     0.725447723522     1.275      
C3       C      0.289680901485     0.726274925837     0.526808574704     1.275      
C3       C      0.789680901483     0.773725074163     0.526808574708     1.275      
C3       C      0.710319098526     0.273725074158     0.526808574727     1.275      
C3       C      0.210319098529     0.226274925841     0.526808574724     1.275      
C3       C      0.289680901474     0.273725074158     0.473191425273     1.275      
C3       C      0.210319098517     0.773725074163     0.473191425292     1.275      
C3       C      0.710319098515     0.726274925837     0.473191425296     1.275      
C3       C      0.789680901471     0.226274925841     0.473191425276     1.275      
C3       C      0.724918020052     0.526811364578     0.708684757877     1.275      
C3       C      0.275081980102     0.473188635422     0.708684757900     1.275      
C3       C      0.275081979948     0.526811364578     0.291315242123     1.275      
C3       C      0.724918019898     0.473188635422     0.291315242100     1.275      
C3       C      0.210197898369     0.526811515186     0.774552177670     1.275      
C3       C      0.210197898295     0.473188484814     0.225447822275     1.275      
C3       C      0.789802101631     0.526811515186     0.225447822330     1.275      
C3       C      0.789802101705     0.473188484814     0.774552177725     1.275      
C3       C      0.710319379041     0.273725588697     0.473191464592     1.275      
C3       C      0.210319379043     0.226274411302     0.473191464589     1.275      
C3       C      0.289680620948     0.726274411307     0.473191464569     1.275      
C3       C      0.789680620945     0.773725588694     0.473191464572     1.275      
C3       C      0.710319379052     0.726274411307     0.526808535431     1.275      
C3       C      0.789680620957     0.226274411302     0.526808535411     1.275      
C3       C      0.289680620959     0.273725588697     0.526808535408     1.275      
C3       C      0.210319379055     0.773725588694     0.526808535428     1.275      
C3       C      0.275082075236     0.473187063392     0.291315382754     1.275      
C3       C      0.724917924610     0.526812936608     0.291315382731     1.275      
C3       C      0.724917924764     0.473187063392     0.708684617246     1.275      
C3       C      0.275082075390     0.526812936608     0.708684617269     1.275      
C3       C      0.789802193457     0.473190601255     0.225447678340     1.275      
C3       C      0.789802193531     0.526809398745     0.774552321715     1.275      
C3       C      0.210197806543     0.473190601255     0.774552321660     1.275      
C3       C      0.210197806469     0.526809398745     0.225447678285     1.275      
C3       C      0.526810239641     0.289802018670     0.725447777182     1.275      
C3       C      0.473189760476     0.710197981338     0.725447777173     1.275      
C3       C      0.526810239524     0.710197981338     0.274552222827     1.275      
C3       C      0.473189760359     0.289802018670     0.274552222818     1.275      
C3       C      0.526812730047     0.224918101076     0.208684714674     1.275      
C3       C      0.473187269838     0.775081898917     0.208684714666     1.275      
C3       C      0.526812730162     0.775081898917     0.791315285334     1.275      
C3       C      0.473187269953     0.224918101076     0.791315285326     1.275      
C3       C      0.473189325593     0.710197723335     0.274552276476     1.275      
C3       C      0.526810674289     0.289802276657     0.274552276484     1.275      
C3       C      0.473189325711     0.289802276657     0.725447723516     1.275      
C3       C      0.526810674407     0.710197723335     0.725447723524     1.275      
C3       C      0.473188428976     0.775082156591     0.791315339272     1.275      
C3       C      0.526811571138     0.224917843416     0.791315339279     1.275      
C3       C      0.473188428862     0.224917843416     0.208684660721     1.275      
C3       C      0.526811571024     0.775082156591     0.208684660728     1.275      
H1       H      0.290527931777     0.182138382365     0.044017811693    -1.5        
H1       H      0.790527931775     0.317861617640     0.044017811696    -1.5        
H1       H      0.709472068180     0.817861617619     0.044017811680    -1.5        
H1       H      0.209472068182     0.682138382375     0.044017811677    -1.5        
H1       H      0.290527931820     0.817861617619     0.955982188320    -1.5        
H1       H      0.209472068225     0.317861617640     0.955982188304    -1.5        
H1       H      0.709472068223     0.182138382365     0.955982188307    -1.5        
H1       H      0.790527931818     0.682138382375     0.955982188323    -1.5        
H1       H      0.044024719261     0.298091859875     0.185299100785    -1.5        
H1       H      0.687159557759     0.044017990083     0.202086682871    -1.5        
H1       H      0.955975280624     0.701908140135     0.185299100774    -1.5        
H1       H      0.312840442198     0.955982009917     0.202086682947    -1.5        
H1       H      0.044024719376     0.701908140135     0.814700899226    -1.5        
H1       H      0.312840442241     0.044017990083     0.797913317129    -1.5        
H1       H      0.955975280739     0.298091859875     0.814700899215    -1.5        
H1       H      0.687159557802     0.955982009917     0.797913317053    -1.5        
H1       H      0.201908006353     0.044023322218     0.314700827609    -1.5        
H1       H      0.201908006530     0.955976677782     0.685299172334    -1.5        
H1       H      0.044016746747     0.187159693408     0.702086609533    -1.5        
H1       H      0.798091993647     0.044023322218     0.685299172391    -1.5        
H1       H      0.955983253369     0.812840306581     0.702086609521    -1.5        
H1       H      0.798091993470     0.955976677782     0.314700827666    -1.5        
H1       H      0.044016746631     0.812840306581     0.297913390479    -1.5        
H1       H      0.955983253253     0.187159693408     0.297913390467    -1.5        
H1       H      0.709472217533     0.817861343938     0.955981631546    -1.5        
H1       H      0.209472217535     0.682138656057     0.955981631542    -1.5        
H1       H      0.290527782511     0.182138656078     0.955981631558    -1.5        
H1       H      0.790527782508     0.317861343927     0.955981631561    -1.5        
H1       H      0.709472217489     0.182138656078     0.044018368442    -1.5        
H1       H      0.790527782465     0.682138656057     0.044018368458    -1.5        
H1       H      0.290527782467     0.817861343938     0.044018368454    -1.5        
H1       H      0.209472217492     0.317861343927     0.044018368439    -1.5        
H1       H      0.955976737158     0.701907701846     0.814701004794    -1.5        
H1       H      0.312840608563     0.955984359806     0.797913570095    -1.5        
H1       H      0.044023262958     0.298092298144     0.814701004805    -1.5        
H1       H      0.687159391480     0.044015640194     0.797913570019    -1.5        
H1       H      0.955976737042     0.298092298144     0.185298995195    -1.5        
H1       H      0.687159391437     0.955984359806     0.202086429905    -1.5        
H1       H      0.044023262842     0.701907701846     0.185298995206    -1.5        
H1       H      0.312840608520     0.044015640194     0.202086429981    -1.5        
H1       H      0.798092164273     0.955975340000     0.685298923290    -1.5        
H1       H      0.798092164096     0.044024660000     0.314701076767    -1.5        
H1       H      0.955983116356     0.812840744468     0.297913496466    -1.5        
H1       H      0.201907835727     0.955975340000     0.314701076710    -1.5        
H1       H      0.044016883528     0.187159255543     0.297913496478    -1.5        
H1       H      0.201907835904     0.044024660000     0.685298923233    -1.5        
H1       H      0.955983116472     0.187159255543     0.702086503522    -1.5        
H1       H      0.044016883644     0.812840744468     0.702086503534    -1.5        
H1       H      0.317861711132     0.709472564970     0.544018123062    -1.5        
H1       H      0.817861711129     0.790527435030     0.544018123066    -1.5        
H1       H      0.682138288887     0.290527435023     0.544018123099    -1.5        
H1       H      0.182138288889     0.209472564976     0.544018123096    -1.5        
H1       H      0.317861711113     0.290527435023     0.455981876901    -1.5        
H1       H      0.182138288871     0.790527435030     0.455981876934    -1.5        
H1       H      0.682138288868     0.709472564970     0.455981876938    -1.5        
H1       H      0.817861711111     0.209472564976     0.455981876904    -1.5        
H1       H      0.701908006534     0.544023322218     0.685299172337    -1.5        
H1       H      0.298091993648     0.455976677782     0.685299172388    -1.5        
H1       H      0.298091993466     0.544023322218     0.314700827663    -1.5        
H1       H      0.701908006352     0.455976677782     0.314700827612    -1.5        
H1       H      0.187159557797     0.544017990083     0.797913317044    -1.5        
H1       H      0.187159557752     0.455982009917     0.202086682872    -1.5        
H1       H      0.812840442203     0.544017990083     0.202086682956    -1.5        
H1       H      0.812840442248     0.455982009917     0.797913317128    -1.5        
H1       H      0.682138749339     0.290528278913     0.455981942970    -1.5        
H1       H      0.182138749342     0.209471721086     0.455981942966    -1.5        
H1       H      0.317861250642     0.709471721093     0.455981942933    -1.5        
H1       H      0.817861250640     0.790528278907     0.455981942936    -1.5        
H1       H      0.682138749358     0.709471721093     0.544018057067    -1.5        
H1       H      0.817861250658     0.209471721086     0.544018057034    -1.5        
H1       H      0.317861250661     0.290528278913     0.544018057030    -1.5        
H1       H      0.182138749360     0.790528278907     0.544018057064    -1.5        
H1       H      0.298092164092     0.455975340000     0.314701076764    -1.5        
H1       H      0.701907835726     0.544024660000     0.314701076713    -1.5        
H1       H      0.701907835908     0.455975340000     0.685298923236    -1.5        
H1       H      0.298092164274     0.544024660000     0.685298923287    -1.5        
H1       H      0.812840608524     0.455984359806     0.202086429990    -1.5        
H1       H      0.812840608570     0.544015640194     0.797913570094    -1.5        
H1       H      0.187159391476     0.455984359806     0.797913570010    -1.5        
H1       H      0.187159391430     0.544015640194     0.202086429906    -1.5        
H1       H      0.544016746748     0.312840306598     0.702086609537    -1.5        
H1       H      0.455983253370     0.687159693415     0.702086609523    -1.5        
H1       H      0.544016746630     0.687159693415     0.297913390477    -1.5        
H1       H      0.455983253252     0.312840306597     0.297913390463    -1.5        
H1       H      0.544024719261     0.201908140119     0.185299100792    -1.5        
H1       H      0.455975280625     0.798091859869     0.185299100778    -1.5        
H1       H      0.544024719375     0.798091859869     0.814700899222    -1.5        
H1       H      0.455975280739     0.201908140119     0.814700899208    -1.5        
H1       H      0.455983116355     0.687159255527     0.297913496462    -1.5        
H1       H      0.544016883527     0.312840744461     0.297913496475    -1.5        
H1       H      0.455983116473     0.312840744461     0.702086503525    -1.5        
H1       H      0.544016883645     0.687159255527     0.702086503538    -1.5        
H1       H      0.455976737157     0.798092298160     0.814701004787    -1.5        
H1       H      0.544023262957     0.201907701852     0.814701004800    -1.5        
H1       H      0.455976737043     0.201907701852     0.185298995200    -1.5        
H1       H      0.544023262843     0.798092298160     0.185298995213    -1.5        


