data_HMOF-3

_audit_creation_method RASPA-1.0
_audit_creation_date 2011-2-28
_audit_author_name 'Xiaoying Bao'

loop_
_citation_author_name
_citation_title
_citation_journal_abbrev
_citation_journal_volume
_citation_page_first
_citation_page_last
_citation_year
'C.D. Wu and W.B. Lin'
'Heterogeneous asymmetric catalysis with homochiral metal-organic frameworks: Network-structure-dependent catalytic activity'
'Angew. Chem. Int. Ed.'
46
7
1075
1078
2007
'X. Bao, R.Q. Snurr, and L.J. Broadbelt'
'Collective Effects of Multiple Chiral Selectors on Enantioselective Adsorption'
Langmuir
25
18
10730
10736
2009


_cell_length_a    20.3049
_cell_length_b    20.3049
_cell_length_c    49.641
_cell_angle_alpha 90
_cell_angle_beta  90
_cell_angle_gamma 90
_cell_volume      20466.4

_symmetry_cell_setting          tetragonal
_symmetry_space_group_name_Hall 'P 4w 2c'
_symmetry_space_group_name_H-M  'P 41 2 2'
_symmetry_Int_Tables_number     91

loop_
_symmetry_equiv_pos_as_xyz
 'x,y,z'
 '-x,-y,z+1/2'
 '-y,x,z+1/4'
 'y,-x,z+3/4'
 '-x,y,-z'
 'x,-y,-z+1/2'
 'y,x,-z+3/4'
 '-y,-x,-z+1/4'

loop_
_atom_site_label
_atom_site_type_symbol
_atom_site_fract_x
_atom_site_fract_y
_atom_site_fract_z
_atom_site_charge
Cd1      Cd     0.203188   0.796812   0.125      0.886 
Cd2      Cd     0.30891    0.8705     0.018104   0.995 
Cl1      Cl    -0.48055    0.9642     0.20963   -0.111 
Cl2      Cl    -0.12222    1.00488    0.05038   -0.104 
Cl3      Cl     0.2838     1.0458    -0.13516   -0.102 
Cl4      Cl     0.72096    0.90919   -0.22659   -0.107 
O1       O     -0.3335     0.7496     0.08623   -0.524 
H1B      H     -0.293      0.7555     0.0886     0.404 
O2       O     -0.2567     0.7433     0.1594    -0.531 
H2B      H     -0.2974     0.7488     0.1573     0.405 
O3       O      0.6667     1.0362    -0.09053   -0.603 
H3A      H      0.6763     1.0181    -0.0758     0.477 
O4       O      0.6044     1.189     -0.12103   -0.516 
H4B      H      0.5843     1.166     -0.1096     0.402 
O5       O      0.4744     0.7819     0.04591   -0.513 
O6       O      0.4011     0.8588     0.04519   -0.519 
O7       O      0.3959     0.7799     0.01635   -0.565 
O8       O      0.2726     0.7543     0.05061   -0.501 
O9       O      0.2359     0.8502     0.0525    -0.493 
O10      O      0.1953     0.7753     0.07847   -0.580 
O11      O      0.2247     1.048      0.03747   -0.503 
O12      O      0.2302     0.9631     0.0109    -0.602 
O13      O      0.3029     0.9749     0.04218   -0.576 
N1       N     -0.68317    0.7989     0.12319   -0.258 
N2       N      0.0893     0.8029     0.12664   -0.312 
N3       N      0.3742     0.919     -0.01503   -0.405 
N4       N      0.8073     1.2465    -0.2398    -0.400 
N5       N      0.4247     0.8076     0.0358     0.863 
N6       N      0.2322     0.7947     0.05985    0.888 
N7       N      0.2514     0.9961     0.03031    0.949 
C1       C     -0.6478     0.7641     0.14162    0.138 
H1A      H     -0.6707     0.7364     0.1539     0.091 
C2       C     -0.5799     0.7675     0.14326   -0.320 
H2A      H     -0.5572     0.7427     0.1565     0.180 
C3       C     -0.545      0.807      0.12554    0.350 
C4       C     -0.581      0.8444     0.10781   -0.317 
H4A      H     -0.5591     0.8737     0.0959     0.172 
C5       C     -0.65       0.8397     0.10719    0.119 
H5A      H     -0.6739     0.8666     0.0949     0.112 
C6       C     -0.4725     0.8107     0.12659   -0.074 
C7       C     -0.4374     0.7787     0.10659   -0.334 
H7A      H     -0.4606     0.7547     0.0932     0.208 
C8       C     -0.3674     0.7808     0.10561    0.394 
C9       C     -0.3326     0.8165     0.12481   -0.216 
C10      C     -0.369      0.8515     0.14558    0.116 
C11      C     -0.4378     0.8492     0.14609    0.0   
C12      C     -0.4727     0.8848     0.16624   -0.168 
H12A     H     -0.5194     0.8837     0.1667     0.148 
C13      C     -0.4389     0.9201     0.1846     0.088 
C14      C     -0.3692     0.9213     0.1849    -0.153 
H14A     H     -0.3461     0.9445     0.1986     0.155 
C15      C     -0.3364     0.8887     0.16531   -0.148 
H15A     H     -0.2896     0.891      0.1649     0.134 
C16      C     -0.2596     0.8189     0.12434   -0.204 
C17      C     -0.2261     0.8614     0.10589    0.127 
C18      C     -0.26       0.9008     0.0875    -0.159 
H18A     H     -0.3067     0.8976     0.0869     0.141 
C19      C     -0.2301     0.9433     0.07049   -0.148 
H19A     H     -0.2549     0.9679     0.0578     0.157 
C20      C     -0.1613     0.9502     0.07205    0.076 
C21      C     -0.1253     0.9126     0.08966   -0.161 
H21A     H     -0.0789     0.9181     0.0905     0.134 
C22      C     -0.1556     0.8663     0.10645    0.007 
C23      C     -0.1205     0.8251     0.12484   -0.080 
C24      C     -0.1532     0.7855     0.14193   -0.307 
H24A     H     -0.1288     0.7579     0.1537     0.200 
C25      C     -0.2237     0.7835     0.14283    0.397 
C26      C      0.0545     0.8134     0.14883    0.199 
H26A     H      0.0772     0.8146     0.1656     0.055 
C27      C     -0.0127     0.8229     0.14903   -0.331 
H27A     H     -0.0349     0.8307     0.1656     0.182 
C28      C     -0.0474     0.821      0.12556    0.302 
C29      C     -0.0105     0.8134     0.10195   -0.282 
H29A     H     -0.0317     0.8149     0.0849     0.163 
C30      C      0.0566     0.8037     0.10336    0.100 
H30A     H      0.0805     0.7974     0.0871     0.117 
C31      C      0.3931     0.8858    -0.03573    0.239 
H31A     H      0.3811     0.8406    -0.0367     0.084 
C32      C      0.4292     0.9113    -0.05624   -0.449 
H32A     H      0.4397     0.8844    -0.0713     0.175 
C33      C      0.4504     0.9745    -0.05555    0.574 
C34      C      0.4323     1.0067    -0.0333    -0.468 
H34A     H      0.446      1.0511    -0.0311     0.181 
C35      C      0.3955     0.9789    -0.0137     0.287 
H35A     H      0.3848     1.0044     0.0017     0.091 
C36      C      0.4924     1.0038    -0.07712   -0.079 
C37      C      0.4633     1.0274    -0.10146    0.004 
C38      C      0.3931     1.0269    -0.1057    -0.164 
H38A     H      0.3644     1.0122    -0.0918     0.129 
C39      C      0.3683     1.0477    -0.1296     0.083 
C40      C      0.4101     1.0747    -0.1504    -0.130 
H40A     H      0.3915     1.0927    -0.1663     0.149 
C41      C      0.4764     1.0739    -0.14691   -0.133 
H41A     H      0.5043     1.0884    -0.1611     0.122 
C42      C      0.5046     1.0518    -0.12247    0.006 
C43      C      0.5739     1.0548    -0.11845   -0.034 
C44      C      0.5999     1.0332    -0.09446    0.345 
C45      C      0.5575     1.0071    -0.07408   -0.382 
H45A     H      0.5765     0.9916    -0.0578     0.174 
C46      C      0.6169     1.0834    -0.13995   -0.011 
C47      C      0.6439     1.0433    -0.16031    0.014 
C48      C      0.6343     0.9735    -0.15981   -0.125 
H48A     H      0.611      0.9547    -0.1451     0.126 
C49      C      0.6573     0.9327    -0.17958   -0.188 
H49A     H      0.6506     0.8864    -0.1786     0.163 
C50      C      0.6918     0.9615    -0.2017     0.122 
C51      C      0.702      1.0283    -0.20273   -0.223 
H51A     H      0.7245     1.0464    -0.2178     0.143 
C52      C      0.6805     1.07      -0.18246    0.106 
C53      C      0.6923     1.1405    -0.18171   -0.213 
C54      C      0.6687     1.1776    -0.16158   -0.210 
H54A     H      0.6782     1.2234    -0.1614     0.182 
C55      C      0.6295     1.1498    -0.1403     0.273 
C56      C      0.8312     1.1908    -0.22899    0.114 
C57      C      0.7938     1.1534    -0.21083   -0.294 
H57A     H      0.8116     1.1139    -0.2036     0.174 
C58      C      0.7319     1.173     -0.20333    0.403 
C59      C      0.7073     1.2308    -0.21512   -0.352 
H59A     H      0.6643     1.2459    -0.2107     0.184 
C60      C      0.7457     1.2656    -0.23315    0.165 
H60A     H      0.7281     1.3043    -0.2411     0.131 
# added to CIF-file (this hydrogen was missing from the experimental CIF-file)
H61      H      0.1761     0.12578    0.5164     0.151 


