data_COF-108

_audit_creation_method RASPA-1.0
_audit_creation_date 2011-3-7
_audit_author_name 'David Dubbeldam'

_citation_author_name        'H.M. El-Kaderi, J.R. Hunt, J.L. Mendoza-Cortés, A.P. Côté, R.E. Taylor, M. O'Keeffe, and O.M. Yaghi'
_citation_title              'Designed Synthesis of 3D Covalent Organic Frameworks'
_citation_journal_abbrev     'Science'
_citation_journal_volume     316
_citation_journal_number     5822
_citation_page_first         268
_citation_page_last          272
_citation_year               2007

_cell_length_a    28.401
_cell_length_b    28.401
_cell_length_c    28.401
_cell_angle_alpha 90
_cell_angle_beta  90
_cell_angle_gamma 90
_cell_volume      22908.7

_symmetry_cell_setting          cubic
_symmetry_space_group_name_Hall 'P -4 2 3'
_symmetry_space_group_name_H-M  'P -4 3 m'
_symmetry_Int_Tables_number     215

loop_
_symmetry_equiv_pos_as_xyz
 'x,y,z'
 '-x,-y,z'
 '-x,y,-z'
 'x,-y,-z'
 'z,x,y'
 'z,-x,-y'
 '-z,-x,y'
 '-z,x,-y'
 'y,z,x'
 '-y,z,-x'
 'y,-z,-x'
 '-y,-z,x'
 'y,x,z'
 '-y,-x,z'
 'y,-x,-z'
 '-y,x,-z'
 'x,z,y'
 '-x,z,-y'
 '-x,-z,y'
 'x,-z,-y'
 'z,y,x'
 'z,-y,-x'
 '-z,y,-x'
 '-z,-y,x'

loop_
_atom_site_label
_atom_site_type_symbol
_atom_site_fract_x
_atom_site_fract_y
_atom_site_fract_z
_atom_site_charge
O1       O      0.67143    0.85456    0.08457    0 
B1       B      0.64886    0.8971     0.1029     0 
C1       C      0.60702    0.92264    0.07736    0 
C2       C      0.53295    0.97038    0.02962    0 
C3       C      0.77691    0.81243    0.1518     0 
C4       C      0.58884    0.96472    0.09527    0 
C5       C      0.55309    0.98865    0.07139    0 
C6       C      0.77691    0.8482     0.18757    0 
C7       C      0.70726    0.88278    0.15107    0 
C8       C      0.74101    0.88337    0.18627    0 
C9       C      0.5        0          0          0 
H1       H      0.60305    0.87282    0.02007    0 
H2       H      0.54196    0.91468   -0.02225    0 
H3       H      0.738      0.91161    0.21118    0 


