data_COF-102

_audit_creation_method RASPA-1.0
_audit_creation_date 2011-3-7
_audit_author_name 'David Dubbeldam'

_citation_author_name        'H.M. El-Kaderi, J.R. Hunt, J.L. Mendoza-Cortés, A.P. Côté, R.E. Taylor, M. O'Keeffe, and O.M. Yaghi'
_citation_title              'Designed Synthesis of 3D Covalent Organic Frameworks'
_citation_journal_abbrev     'Science'
_citation_journal_volume     316
_citation_journal_number     5822
_citation_page_first         268
_citation_page_last          272
_citation_year               2007

_cell_length_a    27.1771
_cell_length_b    27.1771
_cell_length_c    27.1771
_cell_angle_alpha 90
_cell_angle_beta  90
_cell_angle_gamma 90
_cell_volume      20072.9

_symmetry_cell_setting          cubic
_symmetry_space_group_name_Hall 'I -4bd 2c 3'
_symmetry_space_group_name_H-M  'I -4 3 d'
_symmetry_Int_Tables_number     220

loop_
_symmetry_equiv_pos_as_xyz
 'x,y,z'
 '-x+1/2,-y,z+1/2'
 '-x,y+1/2,-z+1/2'
 'x+1/2,-y+1/2,-z'
 'z,x,y'
 'z+1/2,-x+1/2,-y'
 '-z+1/2,-x,y+1/2'
 '-z,x+1/2,-y+1/2'
 'y,z,x'
 '-y,z+1/2,-x+1/2'
 'y+1/2,-z+1/2,-x'
 '-y+1/2,-z,x+1/2'
 'y+1/4,x+1/4,z+1/4'
 '-y+1/4,-x+3/4,z+3/4'
 'y+3/4,-x+1/4,-z+3/4'
 '-y+3/4,x+3/4,-z+1/4'
 'x+1/4,z+1/4,y+1/4'
 '-x+3/4,z+3/4,-y+1/4'
 '-x+1/4,-z+3/4,y+3/4'
 'x+3/4,-z+1/4,-y+3/4'
 'z+1/4,y+1/4,x+1/4'
 'z+3/4,-y+1/4,-x+3/4'
 '-z+3/4,y+3/4,-x+1/4'
 '-z+1/4,-y+3/4,x+3/4'
 'x+1/2,y+1/2,z+1/2'
 '-x,-y+1/2,z'
 '-x+1/2,y,-z'
 'x,-y,-z+1/2'
 'z+1/2,x+1/2,y+1/2'
 'z,-x,-y+1/2'
 '-z,-x+1/2,y'
 '-z+1/2,x,-y'
 'y+1/2,z+1/2,x+1/2'
 '-y+1/2,z,-x'
 'y,-z,-x+1/2'
 '-y,-z+1/2,x'
 'y+3/4,x+3/4,z+3/4'
 '-y+3/4,-x+1/4,z+1/4'
 'y+1/4,-x+3/4,-z+1/4'
 '-y+1/4,x+1/4,-z+3/4'
 'x+3/4,z+3/4,y+3/4'
 '-x+1/4,z+1/4,-y+3/4'
 '-x+3/4,-z+1/4,y+1/4'
 'x+1/4,-z+3/4,-y+1/4'
 'z+3/4,y+3/4,x+3/4'
 'z+1/4,-y+3/4,-x+1/4'
 '-z+1/4,y+1/4,-x+3/4'
 '-z+3/4,-y+1/4,x+1/4'

loop_
_atom_site_label
_atom_site_type_symbol
_atom_site_fract_x
_atom_site_fract_y
_atom_site_fract_z
_atom_site_charge
O1       O      0.8285     0.74693    0.30298    0 
B1       B      0.83533    0.71325    0.26216    0 
C1       C      0.9049     0.76629    0.22758    0 
C2       C      0.87894    0.72231    0.2263     0 
C3       C      0.9312     0.69419    0.16049    0 
C4       C      0.95634    0.7393     0.1596     0 
C5       C      0.89252    0.6863     0.19272    0 
C6       C      0.94306    0.77459    0.19484    0 
C7       C      1          0.75       0.125      0 
H1       H      0.89552    0.7946     0.25352    0 
H2       H      0.94125    0.66415    0.13717    0 
H3       H      0.87377    0.6515     0.19176    0 
H4       H      0.96223    0.80911    0.1966     0 


