data_IRMOF-6

_audit_creation_method RASPA-1.0
_audit_creation_date 2011-3-7
_audit_author_name 'Tina Duren/Houston Frost/Randall Snurr/David Dubbeldam'

_citation_author_name        'M. Eddaoudi, J. Kim, N. Rosi, D. Vodak, J. Wachter, M. Oâ€™Keeffe, and O.M. Yaghi',
_citation_title              'Systematic design of pore size and functionality in isoreticular MOFs and their application in methane storage'
_citation_journal_abbrev     'Science'
_citation_journal_volume     295
_citation_journal_number     5554
_citation_page_first         469
_citation_page_last          472
_citation_year               2002

_cell_length_a    25.8421
_cell_length_b    25.8421
_cell_length_c    25.8421
_cell_angle_alpha 90
_cell_angle_beta  90
_cell_angle_gamma 90
_cell_volume      17257.7

_symmetry_cell_setting          triclinic
_symmetry_space_group_name_Hall 'P 1'
_symmetry_space_group_name_H-M  'P 1'
_symmetry_Int_Tables_number     1

_symmetry_equiv_pos_as_xyz 'x,y,z'

loop_
_atom_site_label
_atom_site_type_symbol
_atom_site_fract_x
_atom_site_fract_y
_atom_site_fract_z
_atom_site_charge
Zn1      Zn     0.20645    0.29356    0.20645    0 
Zn1      Zn     0.79356    0.70645    0.20645    0 
Zn1      Zn     0.20645    0.20645    0.70644    0 
Zn1      Zn     0.79356    0.20645    0.29356    0 
Zn1      Zn     0.79356    0.79356    0.70645    0 
Zn1      Zn     0.20645    0.79356    0.29356    0 
Zn1      Zn     0.20645    0.29356    0.79356    0 
Zn1      Zn     0.20645    0.70644    0.20645    0 
Zn1      Zn     0.79356    0.29356    0.20645    0 
Zn1      Zn     0.79356    0.70645    0.79356    0 
Zn1      Zn     0.79356    0.29356    0.79356    0 
Zn1      Zn     0.20645    0.70644    0.79356    0 
Zn1      Zn     0.29356    0.70644    0.70645    0 
Zn1      Zn     0.70644    0.70644    0.29355    0 
Zn1      Zn     0.29356    0.29356    0.29355    0 
Zn1      Zn     0.70644    0.29356    0.70644    0 
Zn1      Zn     0.29356    0.70645    0.29356    0 
Zn1      Zn     0.70644    0.29355    0.29356    0 
Zn1      Zn     0.29356    0.29356    0.70644    0 
Zn1      Zn     0.20645    0.20645    0.29356    0 
Zn1      Zn     0.70644    0.70644    0.70644    0 
Zn1      Zn     0.20645    0.79356    0.70645    0 
Zn1      Zn     0.79356    0.79356    0.29356    0 
Zn1      Zn     0.79356    0.20645    0.70645    0 
Zn1      Zn     0.29356    0.20645    0.20645    0 
Zn1      Zn     0.70644    0.20645    0.79356    0 
Zn1      Zn     0.29356    0.79356    0.79356    0 
Zn1      Zn     0.70644    0.79356    0.20645    0 
Zn1      Zn     0.29356    0.20645    0.79356    0 
Zn1      Zn     0.70644    0.79356    0.79356    0 
Zn1      Zn     0.29356    0.79356    0.20645    0 
Zn1      Zn     0.70644    0.20645    0.20645    0 
C1       C      0.25       0.25       0.11201    0 
C2       C      0.25       0.25       0.05648    0 
C3       C      0.27891    0.22109    0.02817    0 
C4       C      0.31965    0.18035    0.02664    0 
C1       C      0.75       0.75       0.11201    0 
C2       C      0.75       0.75       0.05648    0 
C5       C      0.72109    0.77891    0.02817    0 
C1       C      0.75       0.25       0.88799    0 
C2       C      0.75       0.25       0.94352    0 
C3       C      0.72109    0.22109    0.97183    0 
C4       C      0.68035    0.18035    0.97336    0 
C1       C      0.25       0.75       0.88799    0 
C2       C      0.25       0.75       0.94352    0 
C5       C      0.27891    0.77891    0.97183    0 
C1       C      0.11201    0.25       0.25       0 
C2       C      0.05648    0.25       0.25       0 
C3       C      0.02817    0.27891    0.22109    0 
C4       C      0.02664    0.31965    0.18035    0 
C1       C      0.11201    0.75       0.75       0 
C2       C      0.05648    0.75       0.75       0 
C5       C      0.02817    0.72109    0.77891    0 
C1       C      0.88799    0.75       0.25       0 
C2       C      0.94352    0.75       0.25       0 
C5       C      0.97183    0.72109    0.22109    0 
C1       C      0.88799    0.25       0.75       0 
C2       C      0.94352    0.25       0.75       0 
C3       C      0.97183    0.27891    0.77891    0 
C4       C      0.97336    0.31965    0.81965    0 
C1       C      0.25       0.11201    0.25       0 
C2       C      0.25       0.05648    0.25       0 
C3       C      0.22109    0.02817    0.27891    0 
C4       C      0.18035    0.02664    0.31965    0 
C1       C      0.75       0.11201    0.75       0 
C2       C      0.75       0.05648    0.75       0 
C5       C      0.77891    0.02817    0.72109    0 
C1       C      0.25       0.88799    0.75       0 
C2       C      0.25       0.94352    0.75       0 
C3       C      0.22109    0.97183    0.72109    0 
C4       C      0.18035    0.97336    0.68035    0 
C1       C      0.75       0.88799    0.25       0 
C2       C      0.75       0.94352    0.25       0 
C5       C      0.77891    0.97183    0.27891    0 
C1       C      0.25       0.25       0.88799    0 
C2       C      0.25       0.25       0.94352    0 
C5       C      0.22109    0.27891    0.97183    0 
C1       C      0.75       0.75       0.88799    0 
C2       C      0.75       0.75       0.94352    0 
C3       C      0.77891    0.72109    0.97183    0 
C4       C      0.81965    0.68035    0.97336    0 
C1       C      0.25       0.75       0.11201    0 
C2       C      0.25       0.75       0.05648    0 
C3       C      0.22109    0.72109    0.02817    0 
C4       C      0.18035    0.68035    0.02664    0 
C1       C      0.75       0.25       0.11201    0 
C2       C      0.75       0.25       0.05648    0 
C5       C      0.77891    0.27891    0.02817    0 
C1       C      0.25       0.11201    0.75       0 
C2       C      0.25       0.05648    0.75       0 
C5       C      0.27891    0.02817    0.77891    0 
C1       C      0.75       0.11201    0.25       0 
C2       C      0.75       0.05648    0.25       0 
C3       C      0.72109    0.02817    0.22109    0 
C4       C      0.68035    0.02664    0.18035    0 
C1       C      0.75       0.88799    0.75       0 
C2       C      0.75       0.94352    0.75       0 
C3       C      0.72109    0.97183    0.77891    0 
C4       C      0.68035    0.97336    0.81965    0 
C1       C      0.25       0.88799    0.25       0 
C2       C      0.25       0.94352    0.25       0 
C5       C      0.27891    0.97183    0.22109    0 
C1       C      0.11201    0.25       0.75       0 
C2       C      0.05648    0.25       0.75       0 
C5       C      0.02817    0.22109    0.72109    0 
C1       C      0.11201    0.75       0.25       0 
C2       C      0.05648    0.75       0.25       0 
C3       C      0.02817    0.77891    0.27891    0 
C4       C      0.02664    0.81965    0.31965    0 
C1       C      0.88799    0.25       0.25       0 
C2       C      0.94352    0.25       0.25       0 
C5       C      0.97183    0.22109    0.27891    0 
C1       C      0.88799    0.75       0.75       0 
C2       C      0.94352    0.75       0.75       0 
C3       C      0.97183    0.77891    0.72109    0 
C4       C      0.97336    0.81965    0.68035    0 
C5       C      0.72109    0.77891    0.97183    0 
C3       C      0.27891    0.22109    0.97183    0 
C4       C      0.31965    0.18035    0.97336    0 
C5       C      0.27891    0.77891    0.02817    0 
C3       C      0.72109    0.22109    0.02817    0 
C4       C      0.68035    0.18035    0.02664    0 
C5       C      0.97183    0.72109    0.77891    0 
C3       C      0.97183    0.27891    0.22109    0 
C4       C      0.97336    0.31965    0.18035    0 
C3       C      0.02817    0.27891    0.77891    0 
C4       C      0.02664    0.31965    0.81965    0 
C5       C      0.02817    0.72109    0.22109    0 
C5       C      0.77891    0.97183    0.72109    0 
C3       C      0.22109    0.97183    0.27891    0 
C4       C      0.18035    0.97336    0.31965    0 
C5       C      0.77891    0.02817    0.27891    0 
C3       C      0.22109    0.02817    0.72109    0 
C4       C      0.18035    0.02664    0.68035    0 
C3       C      0.77891    0.72109    0.02817    0 
C4       C      0.81965    0.68035    0.02664    0 
C5       C      0.22109    0.27891    0.02817    0 
C5       C      0.77891    0.27891    0.97183    0 
C3       C      0.22109    0.72109    0.97183    0 
C4       C      0.18035    0.68035    0.97336    0 
C3       C      0.72109    0.97183    0.22109    0 
C4       C      0.68035    0.97336    0.18035    0 
C5       C      0.27891    0.97183    0.77891    0 
C5       C      0.27891    0.02817    0.22109    0 
C3       C      0.72109    0.02817    0.77891    0 
C4       C      0.68035    0.02664    0.81965    0 
C3       C      0.97183    0.77891    0.27891    0 
C4       C      0.97336    0.81965    0.31965    0 
C5       C      0.97183    0.22109    0.72109    0 
C3       C      0.02817    0.77891    0.72109    0 
C4       C      0.02664    0.81965    0.68035    0 
C5       C      0.02817    0.22109    0.27891    0 
C1       C      0.25       0.75       0.61201    0 
C2       C      0.25       0.75       0.55648    0 
C3       C      0.27891    0.72109    0.52817    0 
C4       C      0.31965    0.68035    0.52664    0 
C1       C      0.75       0.25       0.61201    0 
C2       C      0.75       0.25       0.55648    0 
C5       C      0.72109    0.27891    0.52817    0 
C1       C      0.75       0.75       0.38799    0 
C2       C      0.75       0.75       0.44352    0 
C3       C      0.72109    0.72109    0.47183    0 
C4       C      0.68035    0.68035    0.47336    0 
C1       C      0.25       0.25       0.38799    0 
C2       C      0.25       0.25       0.44352    0 
C5       C      0.27891    0.27891    0.47183    0 
C1       C      0.25       0.61201    0.75       0 
C2       C      0.25       0.55648    0.75       0 
C3       C      0.22109    0.52817    0.77891    0 
C4       C      0.18035    0.52664    0.81965    0 
C1       C      0.75       0.61201    0.25       0 
C2       C      0.75       0.55648    0.25       0 
C5       C      0.77891    0.52817    0.22109    0 
C1       C      0.25       0.38799    0.25       0 
C2       C      0.25       0.44352    0.25       0 
C3       C      0.22109    0.47183    0.22109    0 
C4       C      0.18035    0.47336    0.18035    0 
C1       C      0.75       0.38799    0.75       0 
C2       C      0.75       0.44352    0.75       0 
C5       C      0.77891    0.47183    0.77891    0 
C1       C      0.25       0.75       0.38799    0 
C2       C      0.25       0.75       0.44352    0 
C5       C      0.22109    0.77891    0.47183    0 
C1       C      0.75       0.25       0.38799    0 
C2       C      0.75       0.25       0.44352    0 
C3       C      0.77891    0.22109    0.47183    0 
C4       C      0.81965    0.18035    0.47336    0 
C1       C      0.25       0.25       0.61201    0 
C2       C      0.25       0.25       0.55648    0 
C3       C      0.22109    0.22109    0.52817    0 
C4       C      0.18035    0.18035    0.52664    0 
C1       C      0.75       0.75       0.61201    0 
C2       C      0.75       0.75       0.55648    0 
C5       C      0.77891    0.77891    0.52817    0 
C1       C      0.25       0.61201    0.25       0 
C2       C      0.25       0.55648    0.25       0 
C5       C      0.27891    0.52817    0.27891    0 
C1       C      0.75       0.61201    0.75       0 
C2       C      0.75       0.55648    0.75       0 
C3       C      0.72109    0.52817    0.72109    0 
C4       C      0.68035    0.52664    0.68035    0 
C1       C      0.75       0.38799    0.25       0 
C2       C      0.75       0.44352    0.25       0 
C3       C      0.72109    0.47183    0.27891    0 
C4       C      0.68035    0.47336    0.31965    0 
C1       C      0.25       0.38799    0.75       0 
C2       C      0.25       0.44352    0.75       0 
C5       C      0.27891    0.47183    0.72109    0 
C5       C      0.72109    0.27891    0.47183    0 
C3       C      0.27891    0.72109    0.47183    0 
C4       C      0.31965    0.68035    0.47336    0 
C5       C      0.27891    0.27891    0.52817    0 
C3       C      0.72109    0.72109    0.52817    0 
C4       C      0.68035    0.68035    0.52664    0 
C5       C      0.77891    0.47183    0.22109    0 
C3       C      0.22109    0.47183    0.77891    0 
C4       C      0.18035    0.47336    0.81965    0 
C5       C      0.77891    0.52817    0.77891    0 
C3       C      0.22109    0.52817    0.22109    0 
C4       C      0.18035    0.52664    0.18035    0 
C3       C      0.77891    0.22109    0.52817    0 
C4       C      0.81965    0.18035    0.52664    0 
C5       C      0.22109    0.77891    0.52817    0 
C5       C      0.77891    0.77891    0.47183    0 
C3       C      0.22109    0.22109    0.47183    0 
C4       C      0.18035    0.18035    0.47336    0 
C3       C      0.72109    0.47183    0.72109    0 
C4       C      0.68035    0.47336    0.68035    0 
C5       C      0.27891    0.47183    0.27891    0 
C5       C      0.27891    0.52817    0.72109    0 
C3       C      0.72109    0.52817    0.27891    0 
C4       C      0.68035    0.52664    0.31965    0 
C1       C      0.61201    0.25       0.75       0 
C2       C      0.55648    0.25       0.75       0 
C3       C      0.52817    0.27891    0.72109    0 
C4       C      0.52664    0.31965    0.68035    0 
C1       C      0.61201    0.75       0.25       0 
C2       C      0.55648    0.75       0.25       0 
C5       C      0.52817    0.72109    0.27891    0 
C1       C      0.38799    0.75       0.75       0 
C2       C      0.44352    0.75       0.75       0 
C5       C      0.47183    0.72109    0.72109    0 
C1       C      0.38799    0.25       0.25       0 
C2       C      0.44352    0.25       0.25       0 
C3       C      0.47183    0.27891    0.27891    0 
C4       C      0.47336    0.31965    0.31965    0 
C1       C      0.61201    0.25       0.25       0 
C2       C      0.55648    0.25       0.25       0 
C5       C      0.52817    0.22109    0.22109    0 
C1       C      0.61201    0.75       0.75       0 
C2       C      0.55648    0.75       0.75       0 
C3       C      0.52817    0.77891    0.77891    0 
C4       C      0.52664    0.81965    0.81965    0 
C1       C      0.38799    0.25       0.75       0 
C2       C      0.44352    0.25       0.75       0 
C5       C      0.47183    0.22109    0.77891    0 
C1       C      0.38799    0.75       0.25       0 
C2       C      0.44352    0.75       0.25       0 
C3       C      0.47183    0.77891    0.22109    0 
C4       C      0.47336    0.81965    0.18035    0 
C5       C      0.47183    0.72109    0.27891    0 
C3       C      0.47183    0.27891    0.72109    0 
C4       C      0.47336    0.31965    0.68035    0 
C3       C      0.52817    0.27891    0.27891    0 
C4       C      0.52664    0.31965    0.31965    0 
C5       C      0.52817    0.72109    0.72109    0 
C3       C      0.47183    0.77891    0.77891    0 
C4       C      0.47336    0.81965    0.81965    0 
C5       C      0.47183    0.22109    0.22109    0 
C3       C      0.52817    0.77891    0.22109    0 
C4       C      0.52664    0.81965    0.18035    0 
C5       C      0.52817    0.22109    0.77891    0 
H1       H      0.31179    0.14493    0.04125    0 
H1       H      0.68821    0.14493    0.95875    0 
H1       H      0.04125    0.31179    0.14493    0 
H1       H      0.95875    0.31179    0.85507    0 
H1       H      0.14493    0.04125    0.31179    0 
H1       H      0.14493    0.95875    0.68821    0 
H1       H      0.85507    0.68821    0.95875    0 
H1       H      0.14493    0.68821    0.04125    0 
H1       H      0.68821    0.04125    0.14493    0 
H1       H      0.68821    0.95875    0.85507    0 
H1       H      0.04125    0.85507    0.31179    0 
H1       H      0.95875    0.85507    0.68821    0 
H1       H      0.31179    0.14493    0.95875    0 
H1       H      0.68821    0.14493    0.04125    0 
H1       H      0.95875    0.31179    0.14493    0 
H1       H      0.04125    0.31179    0.85507    0 
H1       H      0.14493    0.95875    0.31179    0 
H1       H      0.14493    0.04125    0.68821    0 
H1       H      0.85507    0.68821    0.04125    0 
H1       H      0.14493    0.68821    0.95875    0 
H1       H      0.68821    0.95875    0.14493    0 
H1       H      0.68821    0.04125    0.85507    0 
H1       H      0.95875    0.85507    0.31179    0 
H1       H      0.04125    0.85507    0.68821    0 
H1       H      0.31179    0.64493    0.54125    0 
H1       H      0.68821    0.64493    0.45875    0 
H1       H      0.04125    0.81179    0.64493    0 
H1       H      0.95875    0.81179    0.35507    0 
H1       H      0.14493    0.54125    0.81179    0 
H1       H      0.14493    0.45875    0.18821    0 
H1       H      0.85507    0.18821    0.45875    0 
H1       H      0.14493    0.18821    0.54125    0 
H1       H      0.68821    0.54125    0.64493    0 
H1       H      0.68821    0.45875    0.35507    0 
H1       H      0.04125    0.35507    0.81179    0 
H1       H      0.95875    0.35507    0.18821    0 
H1       H      0.31179    0.64493    0.45875    0 
H1       H      0.68821    0.64493    0.54125    0 
H1       H      0.95875    0.81179    0.64493    0 
H1       H      0.04125    0.81179    0.35507    0 
H1       H      0.14493    0.45875    0.81179    0 
H1       H      0.14493    0.54125    0.18821    0 
H1       H      0.85507    0.18821    0.54125    0 
H1       H      0.14493    0.18821    0.45875    0 
H1       H      0.68821    0.45875    0.64493    0 
H1       H      0.68821    0.54125    0.35507    0 
H1       H      0.95875    0.35507    0.81179    0 
H1       H      0.04125    0.35507    0.18821    0 
H1       H      0.81179    0.14493    0.54125    0 
H1       H      0.18821    0.14493    0.45875    0 
H1       H      0.54125    0.31179    0.64493    0 
H1       H      0.45875    0.31179    0.35507    0 
H1       H      0.64493    0.04125    0.81179    0 
H1       H      0.64493    0.95875    0.18821    0 
H1       H      0.35507    0.68821    0.45875    0 
H1       H      0.64493    0.68821    0.54125    0 
H1       H      0.18821    0.04125    0.64493    0 
H1       H      0.18821    0.95875    0.35507    0 
H1       H      0.54125    0.85507    0.81179    0 
H1       H      0.45875    0.85507    0.18821    0 
H1       H      0.81179    0.14493    0.45875    0 
H1       H      0.18821    0.14493    0.54125    0 
H1       H      0.45875    0.31179    0.64493    0 
H1       H      0.54125    0.31179    0.35507    0 
H1       H      0.64493    0.95875    0.81179    0 
H1       H      0.64493    0.04125    0.18821    0 
H1       H      0.35507    0.68821    0.54125    0 
H1       H      0.64493    0.68821    0.45875    0 
H1       H      0.18821    0.95875    0.64493    0 
H1       H      0.18821    0.04125    0.35507    0 
H1       H      0.45875    0.85507    0.81179    0 
H1       H      0.54125    0.85507    0.18821    0 
H1       H      0.81179    0.64493    0.04125    0 
H1       H      0.18821    0.64493    0.95875    0 
H1       H      0.54125    0.81179    0.14493    0 
H1       H      0.45875    0.81179    0.85507    0 
H1       H      0.64493    0.54125    0.31179    0 
H1       H      0.64493    0.45875    0.68821    0 
H1       H      0.35507    0.18821    0.95875    0 
H1       H      0.64493    0.18821    0.04125    0 
H1       H      0.18821    0.54125    0.14493    0 
H1       H      0.18821    0.45875    0.85507    0 
H1       H      0.54125    0.35507    0.31179    0 
H1       H      0.45875    0.35507    0.68821    0 
H1       H      0.81179    0.64493    0.95875    0 
H1       H      0.18821    0.64493    0.04125    0 
H1       H      0.45875    0.81179    0.14493    0 
H1       H      0.54125    0.81179    0.85507    0 
H1       H      0.64493    0.45875    0.31179    0 
H1       H      0.64493    0.54125    0.68821    0 
H1       H      0.35507    0.18821    0.04125    0 
H1       H      0.64493    0.18821    0.95875    0 
H1       H      0.18821    0.45875    0.14493    0 
H1       H      0.18821    0.54125    0.85507    0 
H1       H      0.45875    0.35507    0.31179    0 
H1       H      0.54125    0.35507    0.68821    0 
H2       H      0.54655    0.69858    0.69858    0 
H2       H      0.45612    0.69759    0.69759    0 
H2       H      0.45345    0.69858    0.30142    0 
H2       H      0.54388    0.69759    0.30241    0 
H2       H      0.45612    0.19759    0.80241    0 
H2       H      0.54388    0.19759    0.80241    0 
H2       H      0.45612    0.19759    0.19759    0 
H2       H      0.54388    0.19759    0.19759    0 
H2       H      0.30241    0.45612    0.69759    0 
H2       H      0.30241    0.54388    0.69759    0 
H2       H      0.30241    0.54388    0.30241    0 
H2       H      0.30241    0.45612    0.30241    0 
H2       H      0.80241    0.45612    0.80241    0 
H2       H      0.80142    0.54655    0.80142    0 
H2       H      0.80241    0.54388    0.19759    0 
H2       H      0.80142    0.45345    0.19858    0 
H2       H      0.30241    0.30241    0.45612    0 
H2       H      0.30142    0.30142    0.54655    0 
H2       H      0.19759    0.80241    0.45612    0 
H2       H      0.19759    0.80241    0.54388    0 
H2       H      0.80241    0.80241    0.45612    0 
H2       H      0.80241    0.80241    0.54388    0 
H2       H      0.69858    0.30142    0.45345    0 
H2       H      0.69759    0.30241    0.54388    0 
H2       H      0.04388    0.69759    0.80241    0 
H2       H      0.04388    0.19759    0.69759    0 
H2       H      0.04388    0.19759    0.30241    0 
H2       H      0.04388    0.69759    0.19759    0 
H2       H      0.30241    0.80241    0.04388    0 
H2       H      0.19759    0.30241    0.04388    0 
H2       H      0.69759    0.80241    0.04388    0 
H2       H      0.80241    0.30241    0.04388    0 
H2       H      0.95612    0.69759    0.19759    0 
H2       H      0.95612    0.19759    0.30241    0 
H2       H      0.95612    0.69759    0.80241    0 
H2       H      0.95612    0.19759    0.69759    0 
H2       H      0.80241    0.30241    0.95612    0 
H2       H      0.69759    0.80241    0.95612    0 
H2       H      0.19759    0.30241    0.95612    0 
H2       H      0.30241    0.80241    0.95612    0 
H2       H      0.30241    0.04388    0.19759    0 
H2       H      0.30241    0.04388    0.80241    0 
H2       H      0.80241    0.95612    0.69759    0 
H2       H      0.80241    0.95612    0.30241    0 
H2       H      0.80241    0.04388    0.30241    0 
H2       H      0.80241    0.04388    0.69759    0 
H2       H      0.30241    0.95612    0.19759    0 
H2       H      0.30241    0.95612    0.80241    0 
O1       O      0.25       0.25       0.25       0 
O2       O      0.21856    0.28144    0.13341    0 
O1       O      0.75       0.75       0.25       0 
O2       O      0.78144    0.71856    0.13341    0 
O1       O      0.75       0.25       0.75       0 
O2       O      0.78144    0.28144    0.86659    0 
O1       O      0.25       0.75       0.75       0 
O2       O      0.21856    0.71856    0.86659    0 
O2       O      0.13341    0.21856    0.28144    0 
O2       O      0.13341    0.78144    0.71856    0 
O2       O      0.86659    0.78144    0.28144    0 
O2       O      0.86659    0.21856    0.71856    0 
O2       O      0.28144    0.13341    0.21856    0 
O2       O      0.71856    0.13341    0.78144    0 
O2       O      0.28144    0.86659    0.78144    0 
O2       O      0.71856    0.86659    0.21856    0 
O1       O      0.25       0.25       0.75       0 
O2       O      0.28144    0.21856    0.86659    0 
O1       O      0.75       0.75       0.75       0 
O2       O      0.71856    0.78144    0.86659    0 
O1       O      0.25       0.75       0.25       0 
O2       O      0.28144    0.78144    0.13341    0 
O1       O      0.75       0.25       0.25       0 
O2       O      0.71856    0.21856    0.13341    0 
O2       O      0.21856    0.13341    0.71856    0 
O2       O      0.78144    0.13341    0.28144    0 
O2       O      0.78144    0.86659    0.71856    0 
O2       O      0.21856    0.86659    0.28144    0 
O2       O      0.13341    0.28144    0.78144    0 
O2       O      0.13341    0.71856    0.21856    0 
O2       O      0.86659    0.28144    0.21856    0 
O2       O      0.86659    0.71856    0.78144    0 
O2       O      0.78144    0.71856    0.86659    0 
O2       O      0.21856    0.28144    0.86659    0 
O2       O      0.21856    0.71856    0.13341    0 
O2       O      0.78144    0.28144    0.13341    0 
O2       O      0.86659    0.78144    0.71856    0 
O2       O      0.86659    0.21856    0.28144    0 
O2       O      0.13341    0.21856    0.71856    0 
O2       O      0.13341    0.78144    0.28144    0 
O2       O      0.71856    0.86659    0.78144    0 
O2       O      0.28144    0.86659    0.21856    0 
O2       O      0.71856    0.13341    0.21856    0 
O2       O      0.28144    0.13341    0.78144    0 
O2       O      0.71856    0.78144    0.13341    0 
O2       O      0.28144    0.21856    0.13341    0 
O2       O      0.71856    0.21856    0.86659    0 
O2       O      0.28144    0.78144    0.86659    0 
O2       O      0.78144    0.86659    0.28144    0 
O2       O      0.21856    0.86659    0.71856    0 
O2       O      0.21856    0.13341    0.28144    0 
O2       O      0.78144    0.13341    0.71856    0 
O2       O      0.86659    0.71856    0.21856    0 
O2       O      0.86659    0.28144    0.78144    0 
O2       O      0.13341    0.71856    0.78144    0 
O2       O      0.13341    0.28144    0.21856    0 
O2       O      0.21856    0.78144    0.63341    0 
O2       O      0.78144    0.21856    0.63341    0 
O2       O      0.78144    0.78144    0.36659    0 
O2       O      0.21856    0.21856    0.36659    0 
O2       O      0.28144    0.63341    0.71856    0 
O2       O      0.71856    0.63341    0.28144    0 
O2       O      0.28144    0.36659    0.28144    0 
O2       O      0.71856    0.36659    0.71856    0 
O2       O      0.28144    0.71856    0.36659    0 
O2       O      0.71856    0.28144    0.36659    0 
O2       O      0.28144    0.28144    0.63341    0 
O2       O      0.71856    0.71856    0.63341    0 
O2       O      0.21856    0.63341    0.21856    0 
O2       O      0.78144    0.63341    0.78144    0 
O2       O      0.78144    0.36659    0.21856    0 
O2       O      0.21856    0.36659    0.78144    0 
O2       O      0.78144    0.21856    0.36659    0 
O2       O      0.21856    0.78144    0.36659    0 
O2       O      0.21856    0.21856    0.63341    0 
O2       O      0.78144    0.78144    0.63341    0 
O2       O      0.71856    0.36659    0.28144    0 
O2       O      0.28144    0.36659    0.71856    0 
O2       O      0.71856    0.63341    0.71856    0 
O2       O      0.28144    0.63341    0.28144    0 
O2       O      0.71856    0.28144    0.63341    0 
O2       O      0.28144    0.71856    0.63341    0 
O2       O      0.71856    0.71856    0.36659    0 
O2       O      0.28144    0.28144    0.36659    0 
O2       O      0.78144    0.36659    0.78144    0 
O2       O      0.21856    0.36659    0.21856    0 
O2       O      0.21856    0.63341    0.78144    0 
O2       O      0.78144    0.63341    0.21856    0 
O2       O      0.63341    0.21856    0.78144    0 
O2       O      0.63341    0.78144    0.21856    0 
O2       O      0.36659    0.78144    0.78144    0 
O2       O      0.36659    0.21856    0.21856    0 
O2       O      0.63341    0.28144    0.28144    0 
O2       O      0.63341    0.71856    0.71856    0 
O2       O      0.36659    0.28144    0.71856    0 
O2       O      0.36659    0.71856    0.28144    0 
O2       O      0.36659    0.78144    0.21856    0 
O2       O      0.36659    0.21856    0.78144    0 
O2       O      0.63341    0.21856    0.21856    0 
O2       O      0.63341    0.78144    0.78144    0 
O2       O      0.36659    0.71856    0.71856    0 
O2       O      0.36659    0.28144    0.28144    0 
O2       O      0.63341    0.71856    0.28144    0 
O2       O      0.63341    0.28144    0.71856    0 


