data_IRMOF-15

_audit_creation_method RASPA-1.0
_audit_creation_date 2011-3-7
_audit_author_name 'Tina Duren/Houston Frost/Randall Snurr/David Dubbeldam'

_citation_author_name        'M. Eddaoudi, J. Kim, N. Rosi, D. Vodak, J. Wachter, M. Oâ€™Keeffe, and O.M. Yaghi',
_citation_title              'Systematic design of pore size and functionality in isoreticular MOFs and their application in methane storage'
_citation_journal_abbrev     'Science'
_citation_journal_volume     295
_citation_journal_number     5554
_citation_page_first         469
_citation_page_last          472
_citation_year               2002

_cell_length_a    21.4594
_cell_length_b    21.4594
_cell_length_c    21.4594
_cell_angle_alpha 90
_cell_angle_beta  90
_cell_angle_gamma 90
_cell_volume      9882.18

_symmetry_cell_setting          triclinic
_symmetry_space_group_name_Hall 'P 1'
_symmetry_space_group_name_H-M  'P 1'
_symmetry_Int_Tables_number     1

_symmetry_equiv_pos_as_xyz 'x,y,z'

loop_
_atom_site_label
_atom_site_type_symbol
_atom_site_fract_x
_atom_site_fract_y
_atom_site_fract_z
_atom_site_charge
O1       O      0          0          0          0 
C2       C      0          0          0.23392    0 
C1       C      0          0          0.16624    0 
C5       C      0          0          0.36466    0 
C6       C      0          0          0.43433    0 
C3       C      0.96114    0.03886    0.2674     0 
C4       C      0.96296    0.03705    0.33217    0 
C7       C      0          0.93814    0.46713    0 
C3       C      0.03886    0.96114    0.2674     0 
C4       C      0.03705    0.96296    0.33217    0 
C7       C      0          0.06186    0.46713    0 
C2       C      0          0          0.76608    0 
C1       C      0          0          0.83376    0 
C5       C      0          0          0.63534    0 
C6       C      0          0          0.56567    0 
C3       C      0.03886    0.03886    0.7326     0 
C4       C      0.03705    0.03705    0.66783    0 
C7       C      0          0.93814    0.53287    0 
C3       C      0.96114    0.96114    0.7326     0 
C4       C      0.96296    0.96296    0.66783    0 
C7       C      0          0.06186    0.53287    0 
C2       C      0.23392    0          0          0 
C1       C      0.16624    0          0          0 
C5       C      0.36466    0          0          0 
C6       C      0.43433    0          0          0 
C3       C      0.2674     0.96114    0.03886    0 
C4       C      0.33217    0.96296    0.03705    0 
C3       C      0.2674     0.03886    0.96114    0 
C4       C      0.33217    0.03705    0.96296    0 
C2       C      0.76608    0          0          0 
C1       C      0.83376    0          0          0 
C5       C      0.63534    0          0          0 
C6       C      0.56567    0          0          0 
C3       C      0.7326     0.03886    0.03886    0 
C4       C      0.66783    0.03705    0.03705    0 
C3       C      0.7326     0.96114    0.96114    0 
C4       C      0.66783    0.96296    0.96296    0 
C2       C      0          0.23392    0          0 
C1       C      0          0.16624    0          0 
C5       C      0          0.36466    0          0 
C6       C      0          0.43433    0          0 
C3       C      0.03886    0.2674     0.96114    0 
C4       C      0.03705    0.33217    0.96296    0 
C3       C      0.96114    0.2674     0.03886    0 
C4       C      0.96296    0.33217    0.03705    0 
C2       C      0          0.76608    0          0 
C1       C      0          0.83376    0          0 
C5       C      0          0.63534    0          0 
C6       C      0          0.56567    0          0 
C3       C      0.03886    0.7326     0.03886    0 
C4       C      0.03705    0.66783    0.03705    0 
C3       C      0.96114    0.7326     0.96114    0 
C4       C      0.96296    0.66783    0.96296    0 
Zn1      Zn     0.05207    0.05207    0.94793    0 
O2       O      0.03898    0.03898    0.86017    0 
Zn1      Zn     0.94793    0.94793    0.94793    0 
O2       O      0.96102    0.96102    0.86017    0 
Zn1      Zn     0.05207    0.94793    0.05207    0 
O2       O      0.03898    0.96102    0.13983    0 
Zn1      Zn     0.94793    0.05207    0.05207    0 
O2       O      0.96102    0.03898    0.13983    0 
O2       O      0.03898    0.13983    0.96102    0 
C7       C      0          0.46713    0.06186    0 
O2       O      0.96102    0.13983    0.03898    0 
C7       C      0          0.46713    0.93814    0 
O2       O      0.96102    0.86017    0.96102    0 
C7       C      0          0.53287    0.06186    0 
O2       O      0.03898    0.86017    0.03898    0 
C7       C      0          0.53287    0.93814    0 
O2       O      0.13983    0.03898    0.96102    0 
C7       C      0.46713    0.93814    0          0 
O2       O      0.13983    0.96102    0.03898    0 
C7       C      0.46713    0.06186    0          0 
O2       O      0.86017    0.03898    0.03898    0 
C7       C      0.53287    0.93814    0          0 
O2       O      0.86017    0.96102    0.96102    0 
C7       C      0.53287    0.06186    0          0 
O1       O      0.5        0.5        0.5        0 
C2       C      0.5        0.5        0.73392    0 
C1       C      0.5        0.5        0.66624    0 
C5       C      0.5        0.5        0.86466    0 
C6       C      0.5        0.5        0.93433    0 
C3       C      0.46114    0.53886    0.7674     0 
C4       C      0.46296    0.53704    0.83217    0 
C7       C      0.5        0.43814    0.96713    0 
C3       C      0.53886    0.46114    0.7674     0 
C4       C      0.53704    0.46296    0.83217    0 
C7       C      0.5        0.56186    0.96713    0 
C2       C      0.5        0.5        0.26608    0 
C1       C      0.5        0.5        0.33376    0 
C5       C      0.5        0.5        0.13534    0 
C6       C      0.5        0.5        0.06567    0 
C3       C      0.53886    0.53886    0.2326     0 
C4       C      0.53704    0.53705    0.16783    0 
C7       C      0.5        0.43814    0.03287    0 
C3       C      0.46114    0.46114    0.2326     0 
C4       C      0.46296    0.46295    0.16783    0 
C7       C      0.5        0.56186    0.03287    0 
C2       C      0.73392    0.5        0.5        0 
C1       C      0.66624    0.5        0.5        0 
C5       C      0.86466    0.5        0.5        0 
C6       C      0.93433    0.5        0.5        0 
C3       C      0.7674     0.46114    0.53886    0 
C4       C      0.83217    0.46296    0.53705    0 
C3       C      0.7674     0.53886    0.46114    0 
C4       C      0.83217    0.53705    0.46296    0 
C2       C      0.26608    0.5        0.5        0 
C1       C      0.33376    0.5        0.5        0 
C5       C      0.13534    0.5        0.5        0 
C6       C      0.06567    0.5        0.5        0 
C3       C      0.2326     0.53886    0.53886    0 
C4       C      0.16783    0.53704    0.53705    0 
C3       C      0.2326     0.46114    0.46114    0 
C4       C      0.16783    0.46296    0.46296    0 
C2       C      0.5        0.73392    0.5        0 
C1       C      0.5        0.66624    0.5        0 
C5       C      0.5        0.86466    0.5        0 
C6       C      0.5        0.93433    0.5        0 
C3       C      0.53886    0.7674     0.46114    0 
C4       C      0.53704    0.83217    0.46296    0 
C3       C      0.46114    0.7674     0.53886    0 
C4       C      0.46296    0.83217    0.53705    0 
C2       C      0.5        0.26608    0.5        0 
C1       C      0.5        0.33376    0.5        0 
C5       C      0.5        0.13534    0.5        0 
C6       C      0.5        0.06567    0.5        0 
C3       C      0.53886    0.2326     0.53886    0 
C4       C      0.53704    0.16783    0.53705    0 
C3       C      0.46114    0.2326     0.46114    0 
C4       C      0.46296    0.16783    0.46296    0 
Zn1      Zn     0.55207    0.55207    0.44793    0 
O2       O      0.53898    0.53898    0.36017    0 
Zn1      Zn     0.44793    0.44793    0.44793    0 
O2       O      0.46102    0.46102    0.36017    0 
Zn1      Zn     0.55207    0.44793    0.55207    0 
O2       O      0.53898    0.46102    0.63983    0 
Zn1      Zn     0.44793    0.55207    0.55207    0 
O2       O      0.46102    0.53898    0.63983    0 
O2       O      0.53898    0.63983    0.46102    0 
C7       C      0.5        0.96713    0.56186    0 
O2       O      0.46102    0.63983    0.53898    0 
C7       C      0.5        0.96713    0.43814    0 
O2       O      0.46102    0.36017    0.46102    0 
C7       C      0.5        0.03287    0.56186    0 
O2       O      0.53898    0.36017    0.53898    0 
C7       C      0.5        0.03287    0.43814    0 
O2       O      0.63983    0.53898    0.46102    0 
C7       C      0.96713    0.43814    0.5        0 
O2       O      0.63983    0.46102    0.53898    0 
C7       C      0.96713    0.56186    0.5        0 
O2       O      0.36017    0.53898    0.53898    0 
C7       C      0.03287    0.43814    0.5        0 
O2       O      0.36017    0.46102    0.46102    0 
C7       C      0.03287    0.56186    0.5        0 
H1       H      0.74617    0.56633    0.43367    0 
H2       H      0.85309    0.56463    0.43537    0 
H2       H      0.85309    0.43537    0.56463    0 
H1       H      0.74617    0.43367    0.56633    0 
H1       H      0.56633    0.43367    0.74617    0 
H1       H      0.43367    0.56633    0.74617    0 
H2       H      0.43537    0.56463    0.85309    0 
H2       H      0.56463    0.43537    0.85309    0 
H1       H      0.25383    0.56633    0.56633    0 
H1       H      0.25383    0.43367    0.43367    0 
H2       H      0.14691    0.43537    0.43537    0 
H2       H      0.14691    0.56463    0.56463    0 
H1       H      0.43367    0.43367    0.25383    0 
H1       H      0.56633    0.56633    0.25383    0 
H2       H      0.43537    0.43537    0.14691    0 
H2       H      0.56463    0.56463    0.14691    0 
H1       H      0.43367    0.74617    0.56633    0 
H2       H      0.43537    0.85309    0.56463    0 
H2       H      0.56463    0.85309    0.43537    0 
H1       H      0.56633    0.74617    0.43367    0 
H2       H      0.43537    0.14691    0.43537    0 
H2       H      0.56463    0.14691    0.56463    0 
H1       H      0.56633    0.25383    0.56633    0 
H1       H      0.43367    0.25383    0.43367    0 
H1       H      0.7532     0.93343    0.93343    0 
H2       H      0.64419    0.93649    0.93649    0 
H3       H      0.555      0.8998     0          0 
H3       H      0.445      0.8998     0          0 
H1       H      0.93343    0.93343    0.7532     0 
H2       H      0.93649    0.93649    0.64419    0 
H3       H      0          0.8998     0.555      0 
H3       H      0          0.8998     0.445      0 
H2       H      0.06463    0.64691    0.06463    0 
H1       H      0.06633    0.75383    0.06633    0 
H3       H      0          0.44363    0.09938    0 
H3       H      0          0.55637    0.09938    0 
H3       H      0.44363    0.09938    0          0 
H3       H      0.55637    0.09938    0          0 
H2       H      0.64691    0.06463    0.06463    0 
H1       H      0.75383    0.06633    0.06633    0 
H1       H      0.06633    0.06633    0.75383    0 
H2       H      0.06463    0.06463    0.64691    0 
H3       H      0          0.1002     0.555      0 
H3       H      0          0.09938    0.44363    0 
H3       H      0          0.445      0.8998     0 
H3       H      0          0.555      0.8998     0 
H2       H      0.93649    0.64419    0.93649    0 
H1       H      0.93343    0.7532     0.93343    0 
H3       H      0.5        0.05637    0.40062    0 
H3       H      0.5        0.59938    0.05637    0 
H3       H      0.5        0.94363    0.40062    0 
H3       H      0.94363    0.40062    0.5        0 
H3       H      0.05637    0.40062    0.5        0 
H3       H      0.05637    0.59938    0.5        0 
H3       H      0.5        0.05637    0.59938    0 
H3       H      0.5        0.40062    0.05637    0 
H3       H      0.5        0.94363    0.59938    0 
H3       H      0.5        0.59938    0.94363    0 
H3       H      0.5        0.40062    0.94363    0 
H1       H      0.2468     0.06657    0.93343    0 
H2       H      0.35581    0.06351    0.93649    0 
H1       H      0.2468     0.93343    0.06657    0 
H2       H      0.35581    0.93649    0.06351    0 
H2       H      0.93649    0.35581    0.06351    0 
H1       H      0.93343    0.2468     0.06657    0 
H2       H      0.06351    0.35581    0.93649    0 
H1       H      0.06657    0.2468     0.93343    0 
H2       H      0.93649    0.06351    0.35581    0 
H1       H      0.93343    0.06657    0.2468     0 
H1       H      0.06657    0.93343    0.2468     0 
H2       H      0.06351    0.93649    0.35581    0 
H3       H      0.94       0.6        0.5        0 


