data_IRMOF-7

_audit_creation_method RASPA-1.0
_audit_creation_date 2011-3-7
_audit_author_name 'Tina Duren/Houston Frost/Randall Snurr/David Dubbeldam'

_citation_author_name        'M. Eddaoudi, J. Kim, N. Rosi, D. Vodak, J. Wachter, M. Oâ€™Keeffe, and O.M. Yaghi',
_citation_title              'Systematic design of pore size and functionality in isoreticular MOFs and their application in methane storage'
_citation_journal_abbrev     'Science'
_citation_journal_volume     295
_citation_journal_number     5554
_citation_page_first         469
_citation_page_last          472
_citation_year               2002

_cell_length_a    25.8288
_cell_length_b    25.8288
_cell_length_c    25.8288
_cell_angle_alpha 90
_cell_angle_beta  90
_cell_angle_gamma 90
_cell_volume      17231.1

_symmetry_cell_setting          triclinic
_symmetry_space_group_name_Hall 'P 1'
_symmetry_space_group_name_H-M  'P 1'
_symmetry_Int_Tables_number     1

_symmetry_equiv_pos_as_xyz 'x,y,z'

loop_
_atom_site_label
_atom_site_type_symbol
_atom_site_fract_x
_atom_site_fract_y
_atom_site_fract_z
_atom_site_charge
Zn1      Zn     0.20669    0.20669    0.20669    0 
O1       O      0.25       0.25       0.25       0 
O2       O      0.13161    0.22048    0.22048    0 
C1       C      0.10706    0.25       0.25       0 
C2       C      0.05047    0.25       0.25       0 
C3       C      0.02379    0.20261    0.25       0 
C4       C      0.05194    0.15632    0.25       0 
H1       H      0.08793    0.15754    0.25       0 
C5       C      0.02708    0.10836    0.25       0 
H2       H      0.04579    0.0776     0.25       0 
Zn1      Zn     0.29331    0.29331    0.20669    0 
O2       O      0.36839    0.27952    0.22048    0 
C1       C      0.39294    0.25       0.25       0 
C2       C      0.44953    0.25       0.25       0 
C3       C      0.47621    0.29739    0.25       0 
Zn1      Zn     0.29331    0.20669    0.29331    0 
O2       O      0.36839    0.22048    0.27952    0 
C3       C      0.47621    0.20261    0.25       0 
C4       C      0.44806    0.15632    0.25       0 
H1       H      0.41207    0.15754    0.25       0 
C5       C      0.47292    0.10836    0.25       0 
H2       H      0.45421    0.0776     0.25       0 
Zn1      Zn     0.20669    0.29331    0.29331    0 
O2       O      0.13161    0.27952    0.27952    0 
C3       C      0.02379    0.29739    0.25       0 
O2       O      0.22048    0.13161    0.22048    0 
C1       C      0.25       0.10706    0.25       0 
C2       C      0.25       0.05047    0.25       0 
C3       C      0.25       0.02379    0.20261    0 
O2       O      0.22048    0.36839    0.27952    0 
C1       C      0.25       0.39294    0.25       0 
C2       C      0.25       0.44953    0.25       0 
C3       C      0.25       0.47621    0.29739    0 
C4       C      0.25       0.44806    0.34368    0 
H1       H      0.25       0.41207    0.34246    0 
C5       C      0.25       0.47292    0.39164    0 
H2       H      0.25       0.45421    0.4224     0 
O2       O      0.27952    0.36839    0.22048    0 
C3       C      0.25       0.47621    0.20261    0 
O2       O      0.27952    0.13161    0.27952    0 
C3       C      0.25       0.02379    0.29739    0 
C4       C      0.25       0.05194    0.34368    0 
H1       H      0.25       0.08793    0.34246    0 
C5       C      0.25       0.02708    0.39164    0 
H2       H      0.25       0.04579    0.4224     0 
O2       O      0.22048    0.22048    0.13161    0 
C1       C      0.25       0.25       0.10706    0 
C2       C      0.25       0.25       0.05047    0 
C3       C      0.20261    0.25       0.02379    0 
C4       C      0.15632    0.25       0.05194    0 
H1       H      0.15754    0.25       0.08793    0 
C5       C      0.10836    0.25       0.02708    0 
H2       H      0.0776     0.25       0.04579    0 
O2       O      0.27952    0.22048    0.36839    0 
C1       C      0.25       0.25       0.39294    0 
C2       C      0.25       0.25       0.44953    0 
C3       C      0.29739    0.25       0.47621    0 
O2       O      0.22048    0.27952    0.36839    0 
C3       C      0.20261    0.25       0.47621    0 
C4       C      0.15632    0.25       0.44806    0 
H1       H      0.15754    0.25       0.41207    0 
C5       C      0.10836    0.25       0.47292    0 
H2       H      0.0776     0.25       0.45421    0 
O2       O      0.27952    0.27952    0.13161    0 
C3       C      0.29739    0.25       0.02379    0 
H3       H      0.25       0.45748    0.17096    0 
H3       H      0.25       0.04252    0.17096    0 
H3       H      0.32904    0.25       0.04252    0 
H3       H      0.32904    0.25       0.45748    0 
H3       H      0.04252    0.32904    0.25       0 
H3       H      0.45748    0.32904    0.25       0 
Zn1      Zn     0.20669    0.20669    0.70669    0 
O1       O      0.25       0.25       0.75       0 
O2       O      0.13161    0.22048    0.72048    0 
C1       C      0.10706    0.25       0.75       0 
C2       C      0.05047    0.25       0.75       0 
C3       C      0.02379    0.20261    0.75       0 
C4       C      0.05194    0.15632    0.75       0 
H1       H      0.08793    0.15754    0.75       0 
C5       C      0.02708    0.10836    0.75       0 
H2       H      0.04579    0.0776     0.75       0 
Zn1      Zn     0.29331    0.29331    0.70669    0 
O2       O      0.36839    0.27952    0.72048    0 
C1       C      0.39294    0.25       0.75       0 
C2       C      0.44953    0.25       0.75       0 
C3       C      0.47621    0.29739    0.75       0 
Zn1      Zn     0.29331    0.20669    0.79331    0 
O2       O      0.36839    0.22048    0.77952    0 
C3       C      0.47621    0.20261    0.75       0 
C4       C      0.44806    0.15632    0.75       0 
H1       H      0.41207    0.15754    0.75       0 
C5       C      0.47292    0.10836    0.75       0 
H2       H      0.45421    0.0776     0.75       0 
Zn1      Zn     0.20669    0.29331    0.79331    0 
O2       O      0.13161    0.27952    0.77952    0 
C3       C      0.02379    0.29739    0.75       0 
O2       O      0.22048    0.13161    0.72048    0 
C1       C      0.25       0.10706    0.75       0 
C2       C      0.25       0.05047    0.75       0 
C3       C      0.25       0.02379    0.70261    0 
O2       O      0.22048    0.36839    0.77952    0 
C1       C      0.25       0.39294    0.75       0 
C2       C      0.25       0.44953    0.75       0 
C3       C      0.25       0.47621    0.79739    0 
C4       C      0.25       0.44806    0.84368    0 
H1       H      0.25       0.41207    0.84246    0 
C5       C      0.25       0.47292    0.89164    0 
H2       H      0.25       0.45421    0.9224     0 
O2       O      0.27952    0.36839    0.72048    0 
C3       C      0.25       0.47621    0.70261    0 
O2       O      0.27952    0.13161    0.77952    0 
C3       C      0.25       0.02379    0.79739    0 
C4       C      0.25       0.05194    0.84368    0 
H1       H      0.25       0.08793    0.84246    0 
C5       C      0.25       0.02708    0.89164    0 
H2       H      0.25       0.04579    0.9224     0 
O2       O      0.22048    0.22048    0.63161    0 
C1       C      0.25       0.25       0.60706    0 
C2       C      0.25       0.25       0.55047    0 
C3       C      0.20261    0.25       0.52379    0 
C4       C      0.15632    0.25       0.55194    0 
H1       H      0.15754    0.25       0.58793    0 
C5       C      0.10836    0.25       0.52708    0 
H2       H      0.0776     0.25       0.54579    0 
O2       O      0.27952    0.22048    0.86839    0 
C1       C      0.25       0.25       0.89294    0 
C2       C      0.25       0.25       0.94953    0 
C3       C      0.29739    0.25       0.97621    0 
O2       O      0.22048    0.27952    0.86839    0 
C3       C      0.20261    0.25       0.97621    0 
C4       C      0.15632    0.25       0.94806    0 
H1       H      0.15754    0.25       0.91207    0 
C5       C      0.10836    0.25       0.97292    0 
H2       H      0.0776     0.25       0.95421    0 
O2       O      0.27952    0.27952    0.63161    0 
C3       C      0.29739    0.25       0.52379    0 
H3       H      0.25       0.45748    0.67096    0 
H3       H      0.25       0.04252    0.67096    0 
H3       H      0.32904    0.25       0.54252    0 
H3       H      0.32904    0.25       0.95748    0 
H3       H      0.04252    0.32904    0.75       0 
H3       H      0.45748    0.32904    0.75       0 
Zn1      Zn     0.20669    0.70669    0.20669    0 
O1       O      0.25       0.75       0.25       0 
O2       O      0.13161    0.72048    0.22048    0 
C1       C      0.10706    0.75       0.25       0 
C2       C      0.05047    0.75       0.25       0 
C3       C      0.02379    0.70261    0.25       0 
C4       C      0.05194    0.65632    0.25       0 
H1       H      0.08793    0.65754    0.25       0 
C5       C      0.02708    0.60836    0.25       0 
H2       H      0.04579    0.5776     0.25       0 
Zn1      Zn     0.29331    0.79331    0.20669    0 
O2       O      0.36839    0.77952    0.22048    0 
C1       C      0.39294    0.75       0.25       0 
C2       C      0.44953    0.75       0.25       0 
C3       C      0.47621    0.79739    0.25       0 
Zn1      Zn     0.29331    0.70669    0.29331    0 
O2       O      0.36839    0.72048    0.27952    0 
C3       C      0.47621    0.70261    0.25       0 
C4       C      0.44806    0.65632    0.25       0 
H1       H      0.41207    0.65754    0.25       0 
C5       C      0.47292    0.60836    0.25       0 
H2       H      0.45421    0.5776     0.25       0 
Zn1      Zn     0.20669    0.79331    0.29331    0 
O2       O      0.13161    0.77952    0.27952    0 
C3       C      0.02379    0.79739    0.25       0 
O2       O      0.22048    0.63161    0.22048    0 
C1       C      0.25       0.60706    0.25       0 
C2       C      0.25       0.55047    0.25       0 
C3       C      0.25       0.52379    0.20261    0 
O2       O      0.22048    0.86839    0.27952    0 
C1       C      0.25       0.89294    0.25       0 
C2       C      0.25       0.94953    0.25       0 
C3       C      0.25       0.97621    0.29739    0 
C4       C      0.25       0.94806    0.34368    0 
H1       H      0.25       0.91207    0.34246    0 
C5       C      0.25       0.97292    0.39164    0 
H2       H      0.25       0.95421    0.4224     0 
O2       O      0.27952    0.86839    0.22048    0 
C3       C      0.25       0.97621    0.20261    0 
O2       O      0.27952    0.63161    0.27952    0 
C3       C      0.25       0.52379    0.29739    0 
C4       C      0.25       0.55194    0.34368    0 
H1       H      0.25       0.58793    0.34246    0 
C5       C      0.25       0.52708    0.39164    0 
H2       H      0.25       0.54579    0.4224     0 
O2       O      0.22048    0.72048    0.13161    0 
C1       C      0.25       0.75       0.10706    0 
C2       C      0.25       0.75       0.05047    0 
C3       C      0.20261    0.75       0.02379    0 
C4       C      0.15632    0.75       0.05194    0 
H1       H      0.15754    0.75       0.08793    0 
C5       C      0.10836    0.75       0.02708    0 
H2       H      0.0776     0.75       0.04579    0 
O2       O      0.27952    0.72048    0.36839    0 
C1       C      0.25       0.75       0.39294    0 
C2       C      0.25       0.75       0.44953    0 
C3       C      0.29739    0.75       0.47621    0 
O2       O      0.22048    0.77952    0.36839    0 
C3       C      0.20261    0.75       0.47621    0 
C4       C      0.15632    0.75       0.44806    0 
H1       H      0.15754    0.75       0.41207    0 
C5       C      0.10836    0.75       0.47292    0 
H2       H      0.0776     0.75       0.45421    0 
O2       O      0.27952    0.77952    0.13161    0 
C3       C      0.29739    0.75       0.02379    0 
H3       H      0.25       0.95748    0.17096    0 
H3       H      0.25       0.54252    0.17096    0 
H3       H      0.32904    0.75       0.04252    0 
H3       H      0.32904    0.75       0.45748    0 
H3       H      0.04252    0.82904    0.25       0 
H3       H      0.45748    0.82904    0.25       0 
Zn1      Zn     0.20669    0.70669    0.70669    0 
O1       O      0.25       0.75       0.75       0 
O2       O      0.13161    0.72048    0.72048    0 
C1       C      0.10706    0.75       0.75       0 
C2       C      0.05047    0.75       0.75       0 
C3       C      0.02379    0.70261    0.75       0 
C4       C      0.05194    0.65632    0.75       0 
H1       H      0.08793    0.65754    0.75       0 
C5       C      0.02708    0.60836    0.75       0 
H2       H      0.04579    0.5776     0.75       0 
Zn1      Zn     0.29331    0.79331    0.70669    0 
O2       O      0.36839    0.77952    0.72048    0 
C1       C      0.39294    0.75       0.75       0 
C2       C      0.44953    0.75       0.75       0 
C3       C      0.47621    0.79739    0.75       0 
Zn1      Zn     0.29331    0.70669    0.79331    0 
O2       O      0.36839    0.72048    0.77952    0 
C3       C      0.47621    0.70261    0.75       0 
C4       C      0.44806    0.65632    0.75       0 
H1       H      0.41207    0.65754    0.75       0 
C5       C      0.47292    0.60836    0.75       0 
H2       H      0.45421    0.5776     0.75       0 
Zn1      Zn     0.20669    0.79331    0.79331    0 
O2       O      0.13161    0.77952    0.77952    0 
C3       C      0.02379    0.79739    0.75       0 
O2       O      0.22048    0.63161    0.72048    0 
C1       C      0.25       0.60706    0.75       0 
C2       C      0.25       0.55047    0.75       0 
C3       C      0.25       0.52379    0.70261    0 
O2       O      0.22048    0.86839    0.77952    0 
C1       C      0.25       0.89294    0.75       0 
C2       C      0.25       0.94953    0.75       0 
C3       C      0.25       0.97621    0.79739    0 
C4       C      0.25       0.94806    0.84368    0 
H1       H      0.25       0.91207    0.84246    0 
C5       C      0.25       0.97292    0.89164    0 
H2       H      0.25       0.95421    0.9224     0 
O2       O      0.27952    0.86839    0.72048    0 
C3       C      0.25       0.97621    0.70261    0 
O2       O      0.27952    0.63161    0.77952    0 
C3       C      0.25       0.52379    0.79739    0 
C4       C      0.25       0.55194    0.84368    0 
H1       H      0.25       0.58793    0.84246    0 
C5       C      0.25       0.52708    0.89164    0 
H2       H      0.25       0.54579    0.9224     0 
O2       O      0.22048    0.72048    0.63161    0 
C1       C      0.25       0.75       0.60706    0 
C2       C      0.25       0.75       0.55047    0 
C3       C      0.20261    0.75       0.52379    0 
C4       C      0.15632    0.75       0.55194    0 
H1       H      0.15754    0.75       0.58793    0 
C5       C      0.10836    0.75       0.52708    0 
H2       H      0.0776     0.75       0.54579    0 
O2       O      0.27952    0.72048    0.86839    0 
C1       C      0.25       0.75       0.89294    0 
C2       C      0.25       0.75       0.94953    0 
C3       C      0.29739    0.75       0.97621    0 
O2       O      0.22048    0.77952    0.86839    0 
C3       C      0.20261    0.75       0.97621    0 
C4       C      0.15632    0.75       0.94806    0 
H1       H      0.15754    0.75       0.91207    0 
C5       C      0.10836    0.75       0.97292    0 
H2       H      0.0776     0.75       0.95421    0 
O2       O      0.27952    0.77952    0.63161    0 
C3       C      0.29739    0.75       0.52379    0 
H3       H      0.25       0.95748    0.67096    0 
H3       H      0.25       0.54252    0.67096    0 
H3       H      0.32904    0.75       0.54252    0 
H3       H      0.32904    0.75       0.95748    0 
H3       H      0.04252    0.82904    0.75       0 
H3       H      0.45748    0.82904    0.75       0 
Zn1      Zn     0.70669    0.20669    0.20669    0 
O1       O      0.75       0.25       0.25       0 
O2       O      0.63161    0.22048    0.22048    0 
C1       C      0.60706    0.25       0.25       0 
C2       C      0.55047    0.25       0.25       0 
C3       C      0.52379    0.20261    0.25       0 
C4       C      0.55194    0.15632    0.25       0 
H1       H      0.58793    0.15754    0.25       0 
C5       C      0.52708    0.10836    0.25       0 
H2       H      0.54579    0.0776     0.25       0 
Zn1      Zn     0.79331    0.29331    0.20669    0 
O2       O      0.86839    0.27952    0.22048    0 
C1       C      0.89294    0.25       0.25       0 
C2       C      0.94953    0.25       0.25       0 
C3       C      0.97621    0.29739    0.25       0 
Zn1      Zn     0.79331    0.20669    0.29331    0 
O2       O      0.86839    0.22048    0.27952    0 
C3       C      0.97621    0.20261    0.25       0 
C4       C      0.94806    0.15632    0.25       0 
H1       H      0.91207    0.15754    0.25       0 
C5       C      0.97292    0.10836    0.25       0 
H2       H      0.95421    0.0776     0.25       0 
Zn1      Zn     0.70669    0.29331    0.29331    0 
O2       O      0.63161    0.27952    0.27952    0 
C3       C      0.52379    0.29739    0.25       0 
O2       O      0.72048    0.13161    0.22048    0 
C1       C      0.75       0.10706    0.25       0 
C2       C      0.75       0.05047    0.25       0 
C3       C      0.75       0.02379    0.20261    0 
O2       O      0.72048    0.36839    0.27952    0 
C1       C      0.75       0.39294    0.25       0 
C2       C      0.75       0.44953    0.25       0 
C3       C      0.75       0.47621    0.29739    0 
C4       C      0.75       0.44806    0.34368    0 
H1       H      0.75       0.41207    0.34246    0 
C5       C      0.75       0.47292    0.39164    0 
H2       H      0.75       0.45421    0.4224     0 
O2       O      0.77952    0.36839    0.22048    0 
C3       C      0.75       0.47621    0.20261    0 
O2       O      0.77952    0.13161    0.27952    0 
C3       C      0.75       0.02379    0.29739    0 
C4       C      0.75       0.05194    0.34368    0 
H1       H      0.75       0.08793    0.34246    0 
C5       C      0.75       0.02708    0.39164    0 
H2       H      0.75       0.04579    0.4224     0 
O2       O      0.72048    0.22048    0.13161    0 
C1       C      0.75       0.25       0.10706    0 
C2       C      0.75       0.25       0.05047    0 
C3       C      0.70261    0.25       0.02379    0 
C4       C      0.65632    0.25       0.05194    0 
H1       H      0.65754    0.25       0.08793    0 
C5       C      0.60836    0.25       0.02708    0 
H2       H      0.5776     0.25       0.04579    0 
O2       O      0.77952    0.22048    0.36839    0 
C1       C      0.75       0.25       0.39294    0 
C2       C      0.75       0.25       0.44953    0 
C3       C      0.79739    0.25       0.47621    0 
O2       O      0.72048    0.27952    0.36839    0 
C3       C      0.70261    0.25       0.47621    0 
C4       C      0.65632    0.25       0.44806    0 
H1       H      0.65754    0.25       0.41207    0 
C5       C      0.60836    0.25       0.47292    0 
H2       H      0.5776     0.25       0.45421    0 
O2       O      0.77952    0.27952    0.13161    0 
C3       C      0.79739    0.25       0.02379    0 
H3       H      0.75       0.45748    0.17096    0 
H3       H      0.75       0.04252    0.17096    0 
H3       H      0.82904    0.25       0.04252    0 
H3       H      0.82904    0.25       0.45748    0 
H3       H      0.54252    0.32904    0.25       0 
H3       H      0.95748    0.32904    0.25       0 
Zn1      Zn     0.70669    0.20669    0.70669    0 
O1       O      0.75       0.25       0.75       0 
O2       O      0.63161    0.22048    0.72048    0 
C1       C      0.60706    0.25       0.75       0 
C2       C      0.55047    0.25       0.75       0 
C3       C      0.52379    0.20261    0.75       0 
C4       C      0.55194    0.15632    0.75       0 
H1       H      0.58793    0.15754    0.75       0 
C5       C      0.52708    0.10836    0.75       0 
H2       H      0.54579    0.0776     0.75       0 
Zn1      Zn     0.79331    0.29331    0.70669    0 
O2       O      0.86839    0.27952    0.72048    0 
C1       C      0.89294    0.25       0.75       0 
C2       C      0.94953    0.25       0.75       0 
C3       C      0.97621    0.29739    0.75       0 
Zn1      Zn     0.79331    0.20669    0.79331    0 
O2       O      0.86839    0.22048    0.77952    0 
C3       C      0.97621    0.20261    0.75       0 
C4       C      0.94806    0.15632    0.75       0 
H1       H      0.91207    0.15754    0.75       0 
C5       C      0.97292    0.10836    0.75       0 
H2       H      0.95421    0.0776     0.75       0 
Zn1      Zn     0.70669    0.29331    0.79331    0 
O2       O      0.63161    0.27952    0.77952    0 
C3       C      0.52379    0.29739    0.75       0 
O2       O      0.72048    0.13161    0.72048    0 
C1       C      0.75       0.10706    0.75       0 
C2       C      0.75       0.05047    0.75       0 
C3       C      0.75       0.02379    0.70261    0 
O2       O      0.72048    0.36839    0.77952    0 
C1       C      0.75       0.39294    0.75       0 
C2       C      0.75       0.44953    0.75       0 
C3       C      0.75       0.47621    0.79739    0 
C4       C      0.75       0.44806    0.84368    0 
H1       H      0.75       0.41207    0.84246    0 
C5       C      0.75       0.47292    0.89164    0 
H2       H      0.75       0.45421    0.9224     0 
O2       O      0.77952    0.36839    0.72048    0 
C3       C      0.75       0.47621    0.70261    0 
O2       O      0.77952    0.13161    0.77952    0 
C3       C      0.75       0.02379    0.79739    0 
C4       C      0.75       0.05194    0.84368    0 
H1       H      0.75       0.08793    0.84246    0 
C5       C      0.75       0.02708    0.89164    0 
H2       H      0.75       0.04579    0.9224     0 
O2       O      0.72048    0.22048    0.63161    0 
C1       C      0.75       0.25       0.60706    0 
C2       C      0.75       0.25       0.55047    0 
C3       C      0.70261    0.25       0.52379    0 
C4       C      0.65632    0.25       0.55194    0 
H1       H      0.65754    0.25       0.58793    0 
C5       C      0.60836    0.25       0.52708    0 
H2       H      0.5776     0.25       0.54579    0 
O2       O      0.77952    0.22048    0.86839    0 
C1       C      0.75       0.25       0.89294    0 
C2       C      0.75       0.25       0.94953    0 
C3       C      0.79739    0.25       0.97621    0 
O2       O      0.72048    0.27952    0.86839    0 
C3       C      0.70261    0.25       0.97621    0 
C4       C      0.65632    0.25       0.94806    0 
H1       H      0.65754    0.25       0.91207    0 
C5       C      0.60836    0.25       0.97292    0 
H2       H      0.5776     0.25       0.95421    0 
O2       O      0.77952    0.27952    0.63161    0 
C3       C      0.79739    0.25       0.52379    0 
H3       H      0.75       0.45748    0.67096    0 
H3       H      0.75       0.04252    0.67096    0 
H3       H      0.82904    0.25       0.54252    0 
H3       H      0.82904    0.25       0.95748    0 
H3       H      0.54252    0.32904    0.75       0 
H3       H      0.95748    0.32904    0.75       0 
Zn1      Zn     0.70669    0.70669    0.20669    0 
O1       O      0.75       0.75       0.25       0 
O2       O      0.63161    0.72048    0.22048    0 
C1       C      0.60706    0.75       0.25       0 
C2       C      0.55047    0.75       0.25       0 
C3       C      0.52379    0.70261    0.25       0 
C4       C      0.55194    0.65632    0.25       0 
H1       H      0.58793    0.65754    0.25       0 
C5       C      0.52708    0.60836    0.25       0 
H2       H      0.54579    0.5776     0.25       0 
Zn1      Zn     0.79331    0.79331    0.20669    0 
O2       O      0.86839    0.77952    0.22048    0 
C1       C      0.89294    0.75       0.25       0 
C2       C      0.94953    0.75       0.25       0 
C3       C      0.97621    0.79739    0.25       0 
Zn1      Zn     0.79331    0.70669    0.29331    0 
O2       O      0.86839    0.72048    0.27952    0 
C3       C      0.97621    0.70261    0.25       0 
C4       C      0.94806    0.65632    0.25       0 
H1       H      0.91207    0.65754    0.25       0 
C5       C      0.97292    0.60836    0.25       0 
H2       H      0.95421    0.5776     0.25       0 
Zn1      Zn     0.70669    0.79331    0.29331    0 
O2       O      0.63161    0.77952    0.27952    0 
C3       C      0.52379    0.79739    0.25       0 
O2       O      0.72048    0.63161    0.22048    0 
C1       C      0.75       0.60706    0.25       0 
C2       C      0.75       0.55047    0.25       0 
C3       C      0.75       0.52379    0.20261    0 
O2       O      0.72048    0.86839    0.27952    0 
C1       C      0.75       0.89294    0.25       0 
C2       C      0.75       0.94953    0.25       0 
C3       C      0.75       0.97621    0.29739    0 
C4       C      0.75       0.94806    0.34368    0 
H1       H      0.75       0.91207    0.34246    0 
C5       C      0.75       0.97292    0.39164    0 
H2       H      0.75       0.95421    0.4224     0 
O2       O      0.77952    0.86839    0.22048    0 
C3       C      0.75       0.97621    0.20261    0 
O2       O      0.77952    0.63161    0.27952    0 
C3       C      0.75       0.52379    0.29739    0 
C4       C      0.75       0.55194    0.34368    0 
H1       H      0.75       0.58793    0.34246    0 
C5       C      0.75       0.52708    0.39164    0 
H2       H      0.75       0.54579    0.4224     0 
O2       O      0.72048    0.72048    0.13161    0 
C1       C      0.75       0.75       0.10706    0 
C2       C      0.75       0.75       0.05047    0 
C3       C      0.70261    0.75       0.02379    0 
C4       C      0.65632    0.75       0.05194    0 
H1       H      0.65754    0.75       0.08793    0 
C5       C      0.60836    0.75       0.02708    0 
H2       H      0.5776     0.75       0.04579    0 
O2       O      0.77952    0.72048    0.36839    0 
C1       C      0.75       0.75       0.39294    0 
C2       C      0.75       0.75       0.44953    0 
C3       C      0.79739    0.75       0.47621    0 
O2       O      0.72048    0.77952    0.36839    0 
C3       C      0.70261    0.75       0.47621    0 
C4       C      0.65632    0.75       0.44806    0 
H1       H      0.65754    0.75       0.41207    0 
C5       C      0.60836    0.75       0.47292    0 
H2       H      0.5776     0.75       0.45421    0 
O2       O      0.77952    0.77952    0.13161    0 
C3       C      0.79739    0.75       0.02379    0 
H3       H      0.75       0.95748    0.17096    0 
H3       H      0.75       0.54252    0.17096    0 
H3       H      0.82904    0.75       0.04252    0 
H3       H      0.82904    0.75       0.45748    0 
H3       H      0.54252    0.82904    0.25       0 
H3       H      0.95748    0.82904    0.25       0 
Zn1      Zn     0.70669    0.70669    0.70669    0 
O1       O      0.75       0.75       0.75       0 
O2       O      0.63161    0.72048    0.72048    0 
C1       C      0.60706    0.75       0.75       0 
C2       C      0.55047    0.75       0.75       0 
C3       C      0.52379    0.70261    0.75       0 
C4       C      0.55194    0.65632    0.75       0 
H1       H      0.58793    0.65754    0.75       0 
C5       C      0.52708    0.60836    0.75       0 
H2       H      0.54579    0.5776     0.75       0 
Zn1      Zn     0.79331    0.79331    0.70669    0 
O2       O      0.86839    0.77952    0.72048    0 
C1       C      0.89294    0.75       0.75       0 
C2       C      0.94953    0.75       0.75       0 
C3       C      0.97621    0.79739    0.75       0 
Zn1      Zn     0.79331    0.70669    0.79331    0 
O2       O      0.86839    0.72048    0.77952    0 
C3       C      0.97621    0.70261    0.75       0 
C4       C      0.94806    0.65632    0.75       0 
H1       H      0.91207    0.65754    0.75       0 
C5       C      0.97292    0.60836    0.75       0 
H2       H      0.95421    0.5776     0.75       0 
Zn1      Zn     0.70669    0.79331    0.79331    0 
O2       O      0.63161    0.77952    0.77952    0 
C3       C      0.52379    0.79739    0.75       0 
O2       O      0.72048    0.63161    0.72048    0 
C1       C      0.75       0.60706    0.75       0 
C2       C      0.75       0.55047    0.75       0 
C3       C      0.75       0.52379    0.70261    0 
O2       O      0.72048    0.86839    0.77952    0 
C1       C      0.75       0.89294    0.75       0 
C2       C      0.75       0.94953    0.75       0 
C3       C      0.75       0.97621    0.79739    0 
C4       C      0.75       0.94806    0.84368    0 
H1       H      0.75       0.91207    0.84246    0 
C5       C      0.75       0.97292    0.89164    0 
H2       H      0.75       0.95421    0.9224     0 
O2       O      0.77952    0.86839    0.72048    0 
C3       C      0.75       0.97621    0.70261    0 
O2       O      0.77952    0.63161    0.77952    0 
C3       C      0.75       0.52379    0.79739    0 
C4       C      0.75       0.55194    0.84368    0 
H1       H      0.75       0.58793    0.84246    0 
C5       C      0.75       0.52708    0.89164    0 
H2       H      0.75       0.54579    0.9224     0 
O2       O      0.72048    0.72048    0.63161    0 
C1       C      0.75       0.75       0.60706    0 
C2       C      0.75       0.75       0.55047    0 
C3       C      0.70261    0.75       0.52379    0 
C4       C      0.65632    0.75       0.55194    0 
H1       H      0.65754    0.75       0.58793    0 
C5       C      0.60836    0.75       0.52708    0 
H2       H      0.5776     0.75       0.54579    0 
O2       O      0.77952    0.72048    0.86839    0 
C1       C      0.75       0.75       0.89294    0 
C2       C      0.75       0.75       0.94953    0 
C3       C      0.79739    0.75       0.97621    0 
O2       O      0.72048    0.77952    0.86839    0 
C3       C      0.70261    0.75       0.97621    0 
C4       C      0.65632    0.75       0.94806    0 
H1       H      0.65754    0.75       0.91207    0 
C5       C      0.60836    0.75       0.97292    0 
H2       H      0.5776     0.75       0.95421    0 
O2       O      0.77952    0.77952    0.63161    0 
C3       C      0.79739    0.75       0.52379    0 
H3       H      0.75       0.95748    0.67096    0 
H3       H      0.75       0.54252    0.67096    0 
H3       H      0.82904    0.75       0.54252    0 
H3       H      0.82904    0.75       0.95748    0 
H3       H      0.54252    0.82904    0.75       0 
H3       H      0.95748    0.82904    0.75       0 


