data_IRMOF-16

_audit_creation_method RASPA-1.0
_audit_creation_date 2011-3-7
_audit_author_name 'Tina Duren/Houston Frost/Randall Snurr/David Dubbeldam'

_citation_author_name        'M. Eddaoudi, J. Kim, N. Rosi, D. Vodak, J. Wachter, M. Oâ€™Keeffe, and O.M. Yaghi',
_citation_title              'Systematic design of pore size and functionality in isoreticular MOFs and their application in methane storage'
_citation_journal_abbrev     'Science'
_citation_journal_volume     295
_citation_journal_number     5554
_citation_page_first         469
_citation_page_last          472
_citation_year               2002

_cell_length_a    42.9806
_cell_length_b    42.9806
_cell_length_c    42.9806
_cell_angle_alpha 90
_cell_angle_beta  90
_cell_angle_gamma 90
_cell_volume      79399.4

_symmetry_cell_setting          triclinic
_symmetry_space_group_name_Hall 'P 1'
_symmetry_space_group_name_H-M  'P 1'
_symmetry_Int_Tables_number     1

_symmetry_equiv_pos_as_xyz 'x,y,z'

loop_
_atom_site_label
_atom_site_type_symbol
_atom_site_fract_x
_atom_site_fract_y
_atom_site_fract_z
_atom_site_charge
Zn1      Zn     0.22401    0.22401    0.22401    0 
O1       O      0.25       0.25       0.25       0 
O2       O      0.2329     0.2329     0.18099    0 
C1       C      0.25       0.25       0.16545    0 
C2       C      0.25       0.25       0.13334    0 
C3       C      0.23006    0.23006    0.11745    0 
C4       C      0.2301     0.2301     0.08495    0 
C5       C      0.25       0.25       0.06845    0 
C6       C      0.25       0.25       0.03295    0 
Zn1      Zn     0.27601    0.27601    0.22401    0 
O2       O      0.2671     0.2671     0.18099    0 
C3       C      0.26996    0.26996    0.11745    0 
C4       C      0.26989    0.26989    0.08495    0 
Zn1      Zn     0.27601    0.22401    0.27601    0 
O2       O      0.2671     0.2329     0.319      0 
C1       C      0.25       0.25       0.33455    0 
C2       C      0.25       0.25       0.36665    0 
C3       C      0.26996    0.23006    0.38254    0 
C4       C      0.26989    0.2301     0.41505    0 
C5       C      0.25       0.25       0.43154    0 
C6       C      0.25       0.25       0.46705    0 
C7       C      0.2782     0.25       0.48366    0 
Zn1      Zn     0.22401    0.27601    0.27601    0 
O2       O      0.2329     0.2671     0.319      0 
C3       C      0.23006    0.26996    0.38254    0 
C4       C      0.2301     0.26989    0.41505    0 
C7       C      0.2218     0.25       0.48366    0 
O2       O      0.18099    0.2329     0.2329     0 
C1       C      0.16545    0.25       0.25       0 
C2       C      0.13334    0.25       0.25       0 
C3       C      0.11745    0.23006    0.23006    0 
C4       C      0.08495    0.2301     0.2301     0 
C5       C      0.06845    0.25       0.25       0 
C6       C      0.03295    0.25       0.25       0 
C7       C      0.01636    0.2218     0.25       0 
O2       O      0.18099    0.2671     0.2671     0 
C3       C      0.11745    0.26996    0.26996    0 
C4       C      0.08495    0.26989    0.26989    0 
C7       C      0.01636    0.2782     0.25       0 
O2       O      0.319      0.2671     0.2329     0 
C1       C      0.33455    0.25       0.25       0 
C2       C      0.36665    0.25       0.25       0 
C3       C      0.38254    0.26996    0.23006    0 
C4       C      0.41505    0.26989    0.2301     0 
C5       C      0.43154    0.25       0.25       0 
C6       C      0.46705    0.25       0.25       0 
O2       O      0.319      0.2329     0.2671     0 
C3       C      0.38254    0.23006    0.26996    0 
C4       C      0.41505    0.2301     0.26989    0 
O2       O      0.2329     0.18099    0.2329     0 
C1       C      0.25       0.16545    0.25       0 
C2       C      0.25       0.13334    0.25       0 
C3       C      0.23006    0.11745    0.23006    0 
C4       C      0.2301     0.08495    0.2301     0 
C5       C      0.25       0.06845    0.25       0 
C6       C      0.25       0.03295    0.25       0 
C7       C      0.25       0.01636    0.2218     0 
O2       O      0.2671     0.18099    0.2671     0 
C3       C      0.26996    0.11745    0.26996    0 
C4       C      0.26989    0.08495    0.26989    0 
C7       C      0.25       0.01636    0.2782     0 
O2       O      0.2329     0.319      0.2671     0 
C1       C      0.25       0.33455    0.25       0 
C2       C      0.25       0.36665    0.25       0 
C3       C      0.23006    0.38254    0.26996    0 
C4       C      0.2301     0.41505    0.26989    0 
C5       C      0.25       0.43154    0.25       0 
C6       C      0.25       0.46705    0.25       0 
O2       O      0.2671     0.319      0.2329     0 
C3       C      0.26996    0.38254    0.23006    0 
C4       C      0.26989    0.41505    0.2301     0 
C7       C      0.25       0.2782     0.01636    0 
C7       C      0.25       0.2218     0.01636    0 
C7       C      0.2782     0.48366    0.25       0 
C7       C      0.2218     0.48366    0.25       0 
C7       C      0.48366    0.25       0.2218     0 
C7       C      0.48366    0.25       0.2782     0 
O1       O      0.25       0.25       0.75       0 
C1       C      0.25       0.25       0.66544    0 
C2       C      0.25       0.25       0.63336    0 
C5       C      0.25       0.25       0.56844    0 
C6       C      0.25       0.25       0.53296    0 
C7       C      0.2218     0.25       0.51635    0 
C7       C      0.2782     0.25       0.51635    0 
C1       C      0.25       0.25       0.83454    0 
C2       C      0.25       0.25       0.86665    0 
C5       C      0.25       0.25       0.93156    0 
C6       C      0.25       0.25       0.96704    0 
C1       C      0.16545    0.25       0.75       0 
C2       C      0.13334    0.25       0.75       0 
C5       C      0.06845    0.25       0.75       0 
C6       C      0.03295    0.25       0.75       0 
C7       C      0.01636    0.2218     0.75       0 
C7       C      0.01636    0.2782     0.75       0 
C1       C      0.33455    0.25       0.75       0 
C2       C      0.36665    0.25       0.75       0 
C5       C      0.43154    0.25       0.75       0 
C6       C      0.46705    0.25       0.75       0 
C1       C      0.25       0.16545    0.75       0 
C2       C      0.25       0.13334    0.75       0 
C5       C      0.25       0.06845    0.75       0 
C6       C      0.25       0.03295    0.75       0 
C7       C      0.25       0.01636    0.72179    0 
C7       C      0.25       0.01636    0.77821    0 
C1       C      0.25       0.33455    0.75       0 
C2       C      0.25       0.36665    0.75       0 
C5       C      0.25       0.43154    0.75       0 
C6       C      0.25       0.46705    0.75       0 
Zn1      Zn     0.22401    0.22401    0.776      0 
O2       O      0.2329     0.2329     0.819      0 
C3       C      0.23006    0.23006    0.88256    0 
C4       C      0.2301     0.2301     0.91504    0 
C7       C      0.25       0.2218     0.98365    0 
Zn1      Zn     0.27601    0.27601    0.776      0 
O2       O      0.2671     0.2671     0.819      0 
C3       C      0.26996    0.26996    0.88256    0 
C4       C      0.26989    0.26989    0.91504    0 
C7       C      0.25       0.2782     0.98365    0 
Zn1      Zn     0.22401    0.27601    0.724      0 
O2       O      0.2329     0.2671     0.681      0 
C3       C      0.23006    0.26996    0.61744    0 
C4       C      0.2301     0.26989    0.58496    0 
Zn1      Zn     0.27601    0.22401    0.724      0 
O2       O      0.2671     0.2329     0.681      0 
C3       C      0.26996    0.23006    0.61744    0 
C4       C      0.26989    0.2301     0.58496    0 
O2       O      0.2329     0.18099    0.76709    0 
C3       C      0.23006    0.11745    0.76995    0 
C4       C      0.2301     0.08495    0.76991    0 
O2       O      0.2671     0.18099    0.73289    0 
C3       C      0.26996    0.11745    0.73005    0 
C4       C      0.26989    0.08495    0.7301     0 
O2       O      0.2671     0.319      0.76709    0 
C3       C      0.26996    0.38254    0.76995    0 
C4       C      0.26989    0.41505    0.76991    0 
C7       C      0.2782     0.48366    0.75       0 
O2       O      0.2329     0.319      0.73289    0 
C3       C      0.23006    0.38254    0.73005    0 
C4       C      0.2301     0.41505    0.7301     0 
C7       C      0.2218     0.48366    0.75       0 
O2       O      0.18099    0.2329     0.76709    0 
C3       C      0.11745    0.23006    0.76995    0 
C4       C      0.08495    0.2301     0.76991    0 
O2       O      0.18099    0.2671     0.73289    0 
C3       C      0.11745    0.26996    0.73005    0 
C4       C      0.08495    0.26989    0.7301     0 
O2       O      0.319      0.2329     0.73289    0 
C3       C      0.38254    0.23006    0.73005    0 
C4       C      0.41505    0.2301     0.7301     0 
C7       C      0.48366    0.25       0.72179    0 
O2       O      0.319      0.2671     0.76709    0 
C3       C      0.38254    0.26996    0.76995    0 
C4       C      0.41505    0.26989    0.76991    0 
C7       C      0.48366    0.25       0.77821    0 
O1       O      0.25       0.75       0.25       0 
C1       C      0.25       0.75       0.16545    0 
C2       C      0.25       0.75       0.13334    0 
C5       C      0.25       0.75       0.06845    0 
C6       C      0.25       0.75       0.03295    0 
C1       C      0.25       0.75       0.33455    0 
C2       C      0.25       0.75       0.36665    0 
C5       C      0.25       0.75       0.43154    0 
C6       C      0.25       0.75       0.46705    0 
C7       C      0.2782     0.75       0.48366    0 
C7       C      0.2218     0.75       0.48366    0 
C1       C      0.16545    0.75       0.25       0 
C2       C      0.13334    0.75       0.25       0 
C5       C      0.06845    0.75       0.25       0 
C6       C      0.03295    0.75       0.25       0 
C7       C      0.01636    0.72179    0.25       0 
C7       C      0.01636    0.77821    0.25       0 
C1       C      0.33455    0.75       0.25       0 
C2       C      0.36665    0.75       0.25       0 
C5       C      0.43154    0.75       0.25       0 
C6       C      0.46705    0.75       0.25       0 
C1       C      0.25       0.66544    0.25       0 
C2       C      0.25       0.63336    0.25       0 
C5       C      0.25       0.56844    0.25       0 
C6       C      0.25       0.53296    0.25       0 
C1       C      0.25       0.83454    0.25       0 
C2       C      0.25       0.86665    0.25       0 
C5       C      0.25       0.93156    0.25       0 
C6       C      0.25       0.96704    0.25       0 
C7       C      0.25       0.98365    0.2782     0 
C7       C      0.25       0.98365    0.2218     0 
Zn1      Zn     0.22401    0.724      0.27601    0 
O2       O      0.2329     0.73289    0.319      0 
C3       C      0.23006    0.73005    0.38254    0 
C4       C      0.2301     0.7301     0.41505    0 
Zn1      Zn     0.27601    0.776      0.27601    0 
O2       O      0.2671     0.76709    0.319      0 
C3       C      0.26996    0.76995    0.38254    0 
C4       C      0.26989    0.76991    0.41505    0 
Zn1      Zn     0.22401    0.776      0.22401    0 
O2       O      0.2329     0.76709    0.18099    0 
C3       C      0.23006    0.76995    0.11745    0 
C4       C      0.2301     0.76991    0.08495    0 
C7       C      0.25       0.77821    0.01636    0 
Zn1      Zn     0.27601    0.724      0.22401    0 
O2       O      0.2671     0.73289    0.18099    0 
C3       C      0.26996    0.73005    0.11745    0 
C4       C      0.26989    0.7301     0.08495    0 
C7       C      0.25       0.72179    0.01636    0 
O2       O      0.2329     0.681      0.2671     0 
C3       C      0.23006    0.61744    0.26996    0 
C4       C      0.2301     0.58496    0.26989    0 
C7       C      0.2218     0.51635    0.25       0 
O2       O      0.2671     0.681      0.2329     0 
C3       C      0.26996    0.61744    0.23006    0 
C4       C      0.26989    0.58496    0.2301     0 
C7       C      0.2782     0.51635    0.25       0 
O2       O      0.2671     0.819      0.2671     0 
C3       C      0.26996    0.88256    0.26996    0 
C4       C      0.26989    0.91504    0.26989    0 
O2       O      0.2329     0.819      0.2329     0 
C3       C      0.23006    0.88256    0.23006    0 
C4       C      0.2301     0.91504    0.2301     0 
O2       O      0.18099    0.73289    0.2671     0 
C3       C      0.11745    0.73005    0.26996    0 
C4       C      0.08495    0.7301     0.26989    0 
O2       O      0.18099    0.76709    0.2329     0 
C3       C      0.11745    0.76995    0.23006    0 
C4       C      0.08495    0.76991    0.2301     0 
O2       O      0.319      0.73289    0.2329     0 
C3       C      0.38254    0.73005    0.23006    0 
C4       C      0.41505    0.7301     0.2301     0 
C7       C      0.48366    0.75       0.2218     0 
O2       O      0.319      0.76709    0.2671     0 
C3       C      0.38254    0.76995    0.26996    0 
C4       C      0.41505    0.76991    0.26989    0 
C7       C      0.48366    0.75       0.2782     0 
Zn1      Zn     0.22401    0.724      0.724      0 
O1       O      0.25       0.75       0.75       0 
O2       O      0.2329     0.73289    0.681      0 
C1       C      0.25       0.75       0.66544    0 
C2       C      0.25       0.75       0.63336    0 
C3       C      0.23006    0.73005    0.61744    0 
C4       C      0.2301     0.7301     0.58496    0 
C5       C      0.25       0.75       0.56844    0 
C6       C      0.25       0.75       0.53296    0 
C7       C      0.2218     0.75       0.51635    0 
Zn1      Zn     0.27601    0.776      0.724      0 
O2       O      0.2671     0.76709    0.681      0 
C3       C      0.26996    0.76995    0.61744    0 
C4       C      0.26989    0.76991    0.58496    0 
C7       C      0.2782     0.75       0.51635    0 
Zn1      Zn     0.27601    0.724      0.776      0 
O2       O      0.2671     0.73289    0.819      0 
C1       C      0.25       0.75       0.83454    0 
C2       C      0.25       0.75       0.86665    0 
C3       C      0.26996    0.73005    0.88256    0 
C4       C      0.26989    0.7301     0.91504    0 
C5       C      0.25       0.75       0.93156    0 
C6       C      0.25       0.75       0.96704    0 
Zn1      Zn     0.22401    0.776      0.776      0 
O2       O      0.2329     0.76709    0.819      0 
C3       C      0.23006    0.76995    0.88256    0 
C4       C      0.2301     0.76991    0.91504    0 
O2       O      0.18099    0.73289    0.73289    0 
C1       C      0.16545    0.75       0.75       0 
C2       C      0.13334    0.75       0.75       0 
C3       C      0.11745    0.73005    0.73005    0 
C4       C      0.08495    0.7301     0.7301     0 
C5       C      0.06845    0.75       0.75       0 
C6       C      0.03295    0.75       0.75       0 
C7       C      0.01636    0.72179    0.75       0 
O2       O      0.18099    0.76709    0.76709    0 
C3       C      0.11745    0.76995    0.76995    0 
C4       C      0.08495    0.76991    0.76991    0 
C7       C      0.01636    0.77821    0.75       0 
O2       O      0.319      0.76709    0.73289    0 
C1       C      0.33455    0.75       0.75       0 
C2       C      0.36665    0.75       0.75       0 
C3       C      0.38254    0.76995    0.73005    0 
C4       C      0.41505    0.76991    0.7301     0 
C5       C      0.43154    0.75       0.75       0 
C6       C      0.46705    0.75       0.75       0 
O2       O      0.319      0.73289    0.76709    0 
C3       C      0.38254    0.73005    0.76995    0 
C4       C      0.41505    0.7301     0.76991    0 
O2       O      0.2329     0.681      0.73289    0 
C1       C      0.25       0.66544    0.75       0 
C2       C      0.25       0.63336    0.75       0 
C3       C      0.23006    0.61744    0.73005    0 
C4       C      0.2301     0.58496    0.7301     0 
C5       C      0.25       0.56844    0.75       0 
C6       C      0.25       0.53296    0.75       0 
O2       O      0.2671     0.681      0.76709    0 
C3       C      0.26996    0.61744    0.76995    0 
C4       C      0.26989    0.58496    0.76991    0 
O2       O      0.2329     0.819      0.76709    0 
C1       C      0.25       0.83454    0.75       0 
C2       C      0.25       0.86665    0.75       0 
C3       C      0.23006    0.88256    0.76995    0 
C4       C      0.2301     0.91504    0.76991    0 
C5       C      0.25       0.93156    0.75       0 
C6       C      0.25       0.96704    0.75       0 
C7       C      0.25       0.98365    0.77821    0 
O2       O      0.2671     0.819      0.73289    0 
C3       C      0.26996    0.88256    0.73005    0 
C4       C      0.26989    0.91504    0.7301     0 
C7       C      0.25       0.98365    0.72179    0 
C7       C      0.25       0.72179    0.98365    0 
C7       C      0.25       0.77821    0.98365    0 
C7       C      0.2218     0.51635    0.75       0 
C7       C      0.2782     0.51635    0.75       0 
C7       C      0.48366    0.75       0.72179    0 
C7       C      0.48366    0.75       0.77821    0 
O1       O      0.75       0.25       0.25       0 
C1       C      0.75       0.25       0.16545    0 
C2       C      0.75       0.25       0.13334    0 
C5       C      0.75       0.25       0.06845    0 
C6       C      0.75       0.25       0.03295    0 
C1       C      0.75       0.25       0.33455    0 
C2       C      0.75       0.25       0.36665    0 
C5       C      0.75       0.25       0.43154    0 
C6       C      0.75       0.25       0.46705    0 
C7       C      0.77821    0.25       0.48366    0 
C7       C      0.72179    0.25       0.48366    0 
C1       C      0.66544    0.25       0.25       0 
C2       C      0.63336    0.25       0.25       0 
C5       C      0.56844    0.25       0.25       0 
C6       C      0.53296    0.25       0.25       0 
C1       C      0.83454    0.25       0.25       0 
C2       C      0.86665    0.25       0.25       0 
C5       C      0.93156    0.25       0.25       0 
C6       C      0.96704    0.25       0.25       0 
C7       C      0.98365    0.2782     0.25       0 
C7       C      0.98365    0.2218     0.25       0 
C1       C      0.75       0.16545    0.25       0 
C2       C      0.75       0.13334    0.25       0 
C5       C      0.75       0.06845    0.25       0 
C6       C      0.75       0.03295    0.25       0 
C7       C      0.75       0.01636    0.2218     0 
C7       C      0.75       0.01636    0.2782     0 
C1       C      0.75       0.33455    0.25       0 
C2       C      0.75       0.36665    0.25       0 
C5       C      0.75       0.43154    0.25       0 
C6       C      0.75       0.46705    0.25       0 
Zn1      Zn     0.724      0.22401    0.27601    0 
O2       O      0.73289    0.2329     0.319      0 
C3       C      0.73005    0.23006    0.38254    0 
C4       C      0.7301     0.2301     0.41505    0 
Zn1      Zn     0.776      0.27601    0.27601    0 
O2       O      0.76709    0.2671     0.319      0 
C3       C      0.76995    0.26996    0.38254    0 
C4       C      0.76991    0.26989    0.41505    0 
Zn1      Zn     0.724      0.27601    0.22401    0 
O2       O      0.73289    0.2671     0.18099    0 
C3       C      0.73005    0.26996    0.11745    0 
C4       C      0.7301     0.26989    0.08495    0 
C7       C      0.75       0.2782     0.01636    0 
Zn1      Zn     0.776      0.22401    0.22401    0 
O2       O      0.76709    0.2329     0.18099    0 
C3       C      0.76995    0.23006    0.11745    0 
C4       C      0.76991    0.2301     0.08495    0 
C7       C      0.75       0.2218     0.01636    0 
O2       O      0.73289    0.18099    0.2671     0 
C3       C      0.73005    0.11745    0.26996    0 
C4       C      0.7301     0.08495    0.26989    0 
O2       O      0.76709    0.18099    0.2329     0 
C3       C      0.76995    0.11745    0.23006    0 
C4       C      0.76991    0.08495    0.2301     0 
O2       O      0.76709    0.319      0.2671     0 
C3       C      0.76995    0.38254    0.26996    0 
C4       C      0.76991    0.41505    0.26989    0 
C7       C      0.77821    0.48366    0.25       0 
O2       O      0.73289    0.319      0.2329     0 
C3       C      0.73005    0.38254    0.23006    0 
C4       C      0.7301     0.41505    0.2301     0 
C7       C      0.72179    0.48366    0.25       0 
O2       O      0.681      0.2329     0.2671     0 
C3       C      0.61744    0.23006    0.26996    0 
C4       C      0.58496    0.2301     0.26989    0 
C7       C      0.51635    0.25       0.2782     0 
O2       O      0.681      0.2671     0.2329     0 
C3       C      0.61744    0.26996    0.23006    0 
C4       C      0.58496    0.26989    0.2301     0 
C7       C      0.51635    0.25       0.2218     0 
O2       O      0.819      0.2329     0.2329     0 
C3       C      0.88256    0.23006    0.23006    0 
C4       C      0.91504    0.2301     0.2301     0 
O2       O      0.819      0.2671     0.2671     0 
C3       C      0.88256    0.26996    0.26996    0 
C4       C      0.91504    0.26989    0.26989    0 
Zn1      Zn     0.724      0.22401    0.724      0 
O1       O      0.75       0.25       0.75       0 
O2       O      0.73289    0.2329     0.681      0 
C1       C      0.75       0.25       0.66544    0 
C2       C      0.75       0.25       0.63336    0 
C3       C      0.73005    0.23006    0.61744    0 
C4       C      0.7301     0.2301     0.58496    0 
C5       C      0.75       0.25       0.56844    0 
C6       C      0.75       0.25       0.53296    0 
C7       C      0.72179    0.25       0.51635    0 
Zn1      Zn     0.776      0.27601    0.724      0 
O2       O      0.76709    0.2671     0.681      0 
C3       C      0.76995    0.26996    0.61744    0 
C4       C      0.76991    0.26989    0.58496    0 
C7       C      0.77821    0.25       0.51635    0 
Zn1      Zn     0.776      0.22401    0.776      0 
O2       O      0.76709    0.2329     0.819      0 
C1       C      0.75       0.25       0.83454    0 
C2       C      0.75       0.25       0.86665    0 
C3       C      0.76995    0.23006    0.88256    0 
C4       C      0.76991    0.2301     0.91504    0 
C5       C      0.75       0.25       0.93156    0 
C6       C      0.75       0.25       0.96704    0 
Zn1      Zn     0.724      0.27601    0.776      0 
O2       O      0.73289    0.2671     0.819      0 
C3       C      0.73005    0.26996    0.88256    0 
C4       C      0.7301     0.26989    0.91504    0 
O2       O      0.681      0.2329     0.73289    0 
C1       C      0.66544    0.25       0.75       0 
C2       C      0.63336    0.25       0.75       0 
C3       C      0.61744    0.23006    0.73005    0 
C4       C      0.58496    0.2301     0.7301     0 
C5       C      0.56844    0.25       0.75       0 
C6       C      0.53296    0.25       0.75       0 
O2       O      0.681      0.2671     0.76709    0 
C3       C      0.61744    0.26996    0.76995    0 
C4       C      0.58496    0.26989    0.76991    0 
O2       O      0.819      0.2671     0.73289    0 
C1       C      0.83454    0.25       0.75       0 
C2       C      0.86665    0.25       0.75       0 
C3       C      0.88256    0.26996    0.73005    0 
C4       C      0.91504    0.26989    0.7301     0 
C5       C      0.93156    0.25       0.75       0 
C6       C      0.96704    0.25       0.75       0 
C7       C      0.98365    0.2782     0.75       0 
O2       O      0.819      0.2329     0.76709    0 
C3       C      0.88256    0.23006    0.76995    0 
C4       C      0.91504    0.2301     0.76991    0 
C7       C      0.98365    0.2218     0.75       0 
O2       O      0.73289    0.18099    0.73289    0 
C1       C      0.75       0.16545    0.75       0 
C2       C      0.75       0.13334    0.75       0 
C3       C      0.73005    0.11745    0.73005    0 
C4       C      0.7301     0.08495    0.7301     0 
C5       C      0.75       0.06845    0.75       0 
C6       C      0.75       0.03295    0.75       0 
C7       C      0.75       0.01636    0.72179    0 
O2       O      0.76709    0.18099    0.76709    0 
C3       C      0.76995    0.11745    0.76995    0 
C4       C      0.76991    0.08495    0.76991    0 
C7       C      0.75       0.01636    0.77821    0 
O2       O      0.73289    0.319      0.76709    0 
C1       C      0.75       0.33455    0.75       0 
C2       C      0.75       0.36665    0.75       0 
C3       C      0.73005    0.38254    0.76995    0 
C4       C      0.7301     0.41505    0.76991    0 
C5       C      0.75       0.43154    0.75       0 
C6       C      0.75       0.46705    0.75       0 
O2       O      0.76709    0.319      0.73289    0 
C3       C      0.76995    0.38254    0.73005    0 
C4       C      0.76991    0.41505    0.7301     0 
C7       C      0.75       0.2218     0.98365    0 
C7       C      0.75       0.2782     0.98365    0 
C7       C      0.77821    0.48366    0.75       0 
C7       C      0.72179    0.48366    0.75       0 
C7       C      0.51635    0.25       0.77821    0 
C7       C      0.51635    0.25       0.72179    0 
Zn1      Zn     0.724      0.724      0.22401    0 
O1       O      0.75       0.75       0.25       0 
O2       O      0.73289    0.73289    0.18099    0 
C1       C      0.75       0.75       0.16545    0 
C2       C      0.75       0.75       0.13334    0 
C3       C      0.73005    0.73005    0.11745    0 
C4       C      0.7301     0.7301     0.08495    0 
C5       C      0.75       0.75       0.06845    0 
C6       C      0.75       0.75       0.03295    0 
Zn1      Zn     0.776      0.776      0.22401    0 
O2       O      0.76709    0.76709    0.18099    0 
C3       C      0.76995    0.76995    0.11745    0 
C4       C      0.76991    0.76991    0.08495    0 
Zn1      Zn     0.776      0.724      0.27601    0 
O2       O      0.76709    0.73289    0.319      0 
C1       C      0.75       0.75       0.33455    0 
C2       C      0.75       0.75       0.36665    0 
C3       C      0.76995    0.73005    0.38254    0 
C4       C      0.76991    0.7301     0.41505    0 
C5       C      0.75       0.75       0.43154    0 
C6       C      0.75       0.75       0.46705    0 
C7       C      0.77821    0.75       0.48366    0 
Zn1      Zn     0.724      0.776      0.27601    0 
O2       O      0.73289    0.76709    0.319      0 
C3       C      0.73005    0.76995    0.38254    0 
C4       C      0.7301     0.76991    0.41505    0 
C7       C      0.72179    0.75       0.48366    0 
O2       O      0.681      0.73289    0.2329     0 
C1       C      0.66544    0.75       0.25       0 
C2       C      0.63336    0.75       0.25       0 
C3       C      0.61744    0.73005    0.23006    0 
C4       C      0.58496    0.7301     0.2301     0 
C5       C      0.56844    0.75       0.25       0 
C6       C      0.53296    0.75       0.25       0 
O2       O      0.681      0.76709    0.2671     0 
C3       C      0.61744    0.76995    0.26996    0 
C4       C      0.58496    0.76991    0.26989    0 
O2       O      0.819      0.76709    0.2329     0 
C1       C      0.83454    0.75       0.25       0 
C2       C      0.86665    0.75       0.25       0 
C3       C      0.88256    0.76995    0.23006    0 
C4       C      0.91504    0.76991    0.2301     0 
C5       C      0.93156    0.75       0.25       0 
C6       C      0.96704    0.75       0.25       0 
C7       C      0.98365    0.77821    0.25       0 
O2       O      0.819      0.73289    0.2671     0 
C3       C      0.88256    0.73005    0.26996    0 
C4       C      0.91504    0.7301     0.26989    0 
C7       C      0.98365    0.72179    0.25       0 
O2       O      0.73289    0.681      0.2329     0 
C1       C      0.75       0.66544    0.25       0 
C2       C      0.75       0.63336    0.25       0 
C3       C      0.73005    0.61744    0.23006    0 
C4       C      0.7301     0.58496    0.2301     0 
C5       C      0.75       0.56844    0.25       0 
C6       C      0.75       0.53296    0.25       0 
O2       O      0.76709    0.681      0.2671     0 
C3       C      0.76995    0.61744    0.26996    0 
C4       C      0.76991    0.58496    0.26989    0 
O2       O      0.73289    0.819      0.2671     0 
C1       C      0.75       0.83454    0.25       0 
C2       C      0.75       0.86665    0.25       0 
C3       C      0.73005    0.88256    0.26996    0 
C4       C      0.7301     0.91504    0.26989    0 
C5       C      0.75       0.93156    0.25       0 
C6       C      0.75       0.96704    0.25       0 
C7       C      0.75       0.98365    0.2782     0 
O2       O      0.76709    0.819      0.2329     0 
C3       C      0.76995    0.88256    0.23006    0 
C4       C      0.76991    0.91504    0.2301     0 
C7       C      0.75       0.98365    0.2218     0 
C7       C      0.75       0.77821    0.01636    0 
C7       C      0.75       0.72179    0.01636    0 
C7       C      0.72179    0.51635    0.25       0 
C7       C      0.77821    0.51635    0.25       0 
C7       C      0.51635    0.75       0.2782     0 
C7       C      0.51635    0.75       0.2218     0 
O1       O      0.75       0.75       0.75       0 
C1       C      0.75       0.75       0.66544    0 
C2       C      0.75       0.75       0.63336    0 
C5       C      0.75       0.75       0.56844    0 
C6       C      0.75       0.75       0.53296    0 
C7       C      0.72179    0.75       0.51635    0 
C7       C      0.77821    0.75       0.51635    0 
C1       C      0.75       0.75       0.83454    0 
C2       C      0.75       0.75       0.86665    0 
C5       C      0.75       0.75       0.93156    0 
C6       C      0.75       0.75       0.96704    0 
C1       C      0.66544    0.75       0.75       0 
C2       C      0.63336    0.75       0.75       0 
C5       C      0.56844    0.75       0.75       0 
C6       C      0.53296    0.75       0.75       0 
C1       C      0.83454    0.75       0.75       0 
C2       C      0.86665    0.75       0.75       0 
C5       C      0.93156    0.75       0.75       0 
C6       C      0.96704    0.75       0.75       0 
C7       C      0.98365    0.77821    0.75       0 
C7       C      0.98365    0.72179    0.75       0 
C1       C      0.75       0.66544    0.75       0 
C2       C      0.75       0.63336    0.75       0 
C5       C      0.75       0.56844    0.75       0 
C6       C      0.75       0.53296    0.75       0 
C1       C      0.75       0.83454    0.75       0 
C2       C      0.75       0.86665    0.75       0 
C5       C      0.75       0.93156    0.75       0 
C6       C      0.75       0.96704    0.75       0 
C7       C      0.75       0.98365    0.77821    0 
C7       C      0.75       0.98365    0.72179    0 
Zn1      Zn     0.724      0.724      0.776      0 
O2       O      0.73289    0.73289    0.819      0 
C3       C      0.73005    0.73005    0.88256    0 
C4       C      0.7301     0.7301     0.91504    0 
C7       C      0.75       0.72179    0.98365    0 
Zn1      Zn     0.776      0.776      0.776      0 
O2       O      0.76709    0.76709    0.819      0 
C3       C      0.76995    0.76995    0.88256    0 
C4       C      0.76991    0.76991    0.91504    0 
C7       C      0.75       0.77821    0.98365    0 
Zn1      Zn     0.724      0.776      0.724      0 
O2       O      0.73289    0.76709    0.681      0 
C3       C      0.73005    0.76995    0.61744    0 
C4       C      0.7301     0.76991    0.58496    0 
Zn1      Zn     0.776      0.724      0.724      0 
O2       O      0.76709    0.73289    0.681      0 
C3       C      0.76995    0.73005    0.61744    0 
C4       C      0.76991    0.7301     0.58496    0 
O2       O      0.73289    0.681      0.76709    0 
C3       C      0.73005    0.61744    0.76995    0 
C4       C      0.7301     0.58496    0.76991    0 
C7       C      0.72179    0.51635    0.75       0 
O2       O      0.76709    0.681      0.73289    0 
C3       C      0.76995    0.61744    0.73005    0 
C4       C      0.76991    0.58496    0.7301     0 
C7       C      0.77821    0.51635    0.75       0 
O2       O      0.76709    0.819      0.76709    0 
C3       C      0.76995    0.88256    0.76995    0 
C4       C      0.76991    0.91504    0.76991    0 
O2       O      0.73289    0.819      0.73289    0 
C3       C      0.73005    0.88256    0.73005    0 
C4       C      0.7301     0.91504    0.7301     0 
O2       O      0.681      0.73289    0.76709    0 
C3       C      0.61744    0.73005    0.76995    0 
C4       C      0.58496    0.7301     0.76991    0 
C7       C      0.51635    0.75       0.77821    0 
O2       O      0.681      0.76709    0.73289    0 
C3       C      0.61744    0.76995    0.73005    0 
C4       C      0.58496    0.76991    0.7301     0 
C7       C      0.51635    0.75       0.72179    0 
O2       O      0.819      0.73289    0.73289    0 
C3       C      0.88256    0.73005    0.73005    0 
C4       C      0.91504    0.7301     0.7301     0 
O2       O      0.819      0.76709    0.76709    0 
C3       C      0.88256    0.76995    0.76995    0 
C4       C      0.91504    0.76991    0.76991    0 
H1       H      0.2166     0.2166     0.1287     0 
H2       H      0.21658    0.21658    0.07386    0 
H1       H      0.28341    0.28341    0.12871    0 
H2       H      0.28348    0.28348    0.07402    0 
H1       H      0.28343    0.21662    0.37129    0 
H2       H      0.2834     0.21658    0.42615    0 
H3       H      0.29744    0.25       0.47277    0 
H1       H      0.21662    0.28343    0.37129    0 
H2       H      0.2165     0.28347    0.42597    0 
H3       H      0.20256    0.25       0.47278    0 
H1       H      0.1287     0.2166     0.2166     0 
H2       H      0.07386    0.21658    0.21658    0 
H3       H      0.02725    0.20257    0.25       0 
H1       H      0.12871    0.28341    0.28341    0 
H2       H      0.07402    0.28348    0.28348    0 
H3       H      0.02725    0.29743    0.25       0 
H1       H      0.37129    0.28343    0.21662    0 
H2       H      0.42615    0.2834     0.21658    0 
H1       H      0.37129    0.21662    0.28343    0 
H2       H      0.42597    0.2165     0.28347    0 
H1       H      0.2166     0.1287     0.2166     0 
H2       H      0.21658    0.07386    0.21658    0 
H3       H      0.25       0.02725    0.20257    0 
H1       H      0.28341    0.12871    0.28341    0 
H2       H      0.28348    0.07402    0.28348    0 
H3       H      0.25       0.02725    0.29743    0 
H1       H      0.21662    0.37129    0.28343    0 
H2       H      0.21658    0.42615    0.2834     0 
H1       H      0.28343    0.37129    0.21662    0 
H2       H      0.28347    0.42597    0.2165     0 
H3       H      0.25       0.29743    0.02725    0 
H3       H      0.25       0.20257    0.02725    0 
H3       H      0.29744    0.47277    0.25       0 
H3       H      0.20256    0.47278    0.25       0 
H3       H      0.47278    0.25       0.20256    0 
H3       H      0.47277    0.25       0.29744    0 
H3       H      0.20266    0.25       0.5274     0 
H3       H      0.29734    0.25       0.5274     0 
H3       H      0.02725    0.20257    0.75       0 
H3       H      0.02725    0.29743    0.75       0 
H3       H      0.25       0.02725    0.70256    0 
H3       H      0.25       0.02726    0.79744    0 
H1       H      0.2166     0.2166     0.87132    0 
H2       H      0.21651    0.21651    0.92595    0 
H3       H      0.25       0.20256    0.97277    0 
H1       H      0.28341    0.28341    0.87131    0 
H2       H      0.28348    0.28348    0.92595    0 
H3       H      0.25       0.29744    0.97276    0 
H1       H      0.21662    0.28343    0.62868    0 
H2       H      0.21651    0.28348    0.57405    0 
H1       H      0.28344    0.21663    0.62869    0 
H2       H      0.28348    0.21651    0.57405    0 
H1       H      0.21662    0.1287     0.78341    0 
H2       H      0.21653    0.07402    0.7835     0 
H1       H      0.28343    0.1287     0.71661    0 
H2       H      0.28347    0.07403    0.7165     0 
H1       H      0.28342    0.37128    0.78339    0 
H2       H      0.28346    0.42598    0.78351    0 
H3       H      0.29744    0.47277    0.75       0 
H1       H      0.2166     0.37129    0.7166     0 
H2       H      0.21651    0.42597    0.71651    0 
H3       H      0.20256    0.47278    0.75       0 
H1       H      0.1287     0.21662    0.78341    0 
H2       H      0.07402    0.21653    0.7835     0 
H1       H      0.1287     0.28343    0.71661    0 
H2       H      0.07403    0.28347    0.7165     0 
H1       H      0.37129    0.2166     0.7166     0 
H2       H      0.42597    0.21651    0.71651    0 
H3       H      0.47277    0.25       0.70255    0 
H1       H      0.37128    0.28342    0.78339    0 
H2       H      0.42598    0.28346    0.78351    0 
H3       H      0.47277    0.25       0.79744    0 
H3       H      0.29744    0.75       0.47277    0 
H3       H      0.20256    0.75       0.47278    0 
H3       H      0.02725    0.70256    0.25       0 
H3       H      0.02726    0.79744    0.25       0 
H3       H      0.25       0.97276    0.29744    0 
H3       H      0.25       0.97277    0.20256    0 
H1       H      0.2166     0.7166     0.37129    0 
H2       H      0.21651    0.71651    0.42597    0 
H1       H      0.28342    0.78339    0.37128    0 
H2       H      0.28346    0.78351    0.42598    0 
H1       H      0.21662    0.78341    0.1287     0 
H2       H      0.21653    0.7835     0.07402    0 
H3       H      0.25       0.79744    0.02726    0 
H1       H      0.28343    0.71661    0.1287     0 
H2       H      0.28347    0.7165     0.07403    0 
H3       H      0.25       0.70256    0.02725    0 
H1       H      0.21662    0.62868    0.28343    0 
H2       H      0.2165     0.57405    0.28347    0 
H3       H      0.20266    0.5274     0.25       0 
H1       H      0.28343    0.62868    0.21662    0 
H2       H      0.28347    0.57405    0.2165     0 
H3       H      0.29734    0.5274     0.25       0 
H1       H      0.28341    0.87131    0.28341    0 
H2       H      0.28348    0.92595    0.28348    0 
H1       H      0.2166     0.87132    0.2166     0 
H2       H      0.21651    0.92595    0.21651    0 
H1       H      0.1287     0.71661    0.28343    0 
H2       H      0.07403    0.7165     0.28347    0 
H1       H      0.1287     0.78341    0.21662    0 
H2       H      0.07402    0.7835     0.21653    0 
H1       H      0.37129    0.7166     0.2166     0 
H2       H      0.42597    0.71651    0.21651    0 
H3       H      0.47278    0.75       0.20256    0 
H1       H      0.37128    0.78339    0.28342    0 
H2       H      0.42598    0.78351    0.28346    0 
H3       H      0.47277    0.75       0.29744    0 
H1       H      0.2166     0.71659    0.62868    0 
H2       H      0.21658    0.71658    0.57387    0 
H3       H      0.20266    0.75       0.5274     0 
H1       H      0.28342    0.7834     0.62869    0 
H2       H      0.28347    0.78351    0.57404    0 
H3       H      0.29734    0.75       0.5274     0 
H1       H      0.28343    0.71661    0.87132    0 
H2       H      0.2834     0.71658    0.92614    0 
H1       H      0.21661    0.78342    0.87132    0 
H2       H      0.21651    0.7835     0.92596    0 
H1       H      0.1287     0.7166     0.7166     0 
H2       H      0.07386    0.71658    0.71658    0 
H3       H      0.02725    0.70256    0.75       0 
H1       H      0.12871    0.7834     0.7834     0 
H2       H      0.07402    0.78349    0.78349    0 
H3       H      0.02726    0.79744    0.75       0 
H1       H      0.37129    0.78341    0.71661    0 
H2       H      0.42614    0.78343    0.71658    0 
H1       H      0.37129    0.71661    0.78341    0 
H2       H      0.42597    0.71652    0.7835     0 
H1       H      0.2166     0.62868    0.71659    0 
H2       H      0.21658    0.57387    0.71658    0 
H1       H      0.28342    0.62869    0.7834     0 
H2       H      0.28347    0.57404    0.78351    0 
H1       H      0.21661    0.87132    0.78342    0 
H2       H      0.21659    0.92613    0.78344    0 
H3       H      0.25       0.97276    0.79745    0 
H1       H      0.28343    0.87132    0.71661    0 
H2       H      0.28347    0.92595    0.7165     0 
H3       H      0.25       0.97276    0.70255    0 
H3       H      0.25       0.70255    0.97276    0 
H3       H      0.25       0.79745    0.97276    0 
H3       H      0.20266    0.5274     0.75       0 
H3       H      0.29734    0.5274     0.75       0 
H3       H      0.47277    0.75       0.70255    0 
H3       H      0.47277    0.75       0.79744    0 
H3       H      0.79744    0.25       0.47277    0 
H3       H      0.70255    0.25       0.47277    0 
H3       H      0.97276    0.29744    0.25       0 
H3       H      0.97277    0.20256    0.25       0 
H3       H      0.75       0.02725    0.20257    0 
H3       H      0.75       0.02725    0.29743    0 
H1       H      0.7166     0.2166     0.37129    0 
H2       H      0.71651    0.21651    0.42597    0 
H1       H      0.78339    0.28342    0.37128    0 
H2       H      0.78351    0.28346    0.42598    0 
H1       H      0.71661    0.28343    0.1287     0 
H2       H      0.7165     0.28347    0.07403    0 
H3       H      0.75       0.29743    0.02725    0 
H1       H      0.78341    0.21662    0.1287     0 
H2       H      0.7835     0.21653    0.07402    0 
H3       H      0.75       0.20257    0.02725    0 
H1       H      0.71661    0.1287     0.28343    0 
H2       H      0.7165     0.07403    0.28347    0 
H1       H      0.78341    0.1287     0.21662    0 
H2       H      0.7835     0.07402    0.21653    0 
H1       H      0.78339    0.37128    0.28342    0 
H2       H      0.78351    0.42598    0.28346    0 
H3       H      0.79744    0.47277    0.25       0 
H1       H      0.7166     0.37129    0.2166     0 
H2       H      0.71651    0.42597    0.21651    0 
H3       H      0.70255    0.47277    0.25       0 
H1       H      0.62868    0.21662    0.28343    0 
H2       H      0.57405    0.2165     0.28347    0 
H3       H      0.5274     0.25       0.29734    0 
H1       H      0.62868    0.28343    0.21662    0 
H2       H      0.57405    0.28347    0.2165     0 
H3       H      0.5274     0.25       0.20266    0 
H1       H      0.87132    0.2166     0.2166     0 
H2       H      0.92595    0.21651    0.21651    0 
H1       H      0.87131    0.28341    0.28341    0 
H2       H      0.92595    0.28348    0.28348    0 
H1       H      0.71659    0.2166     0.62868    0 
H2       H      0.71658    0.21658    0.57387    0 
H3       H      0.70265    0.25       0.5274     0 
H1       H      0.7834     0.28342    0.62869    0 
H2       H      0.78351    0.28347    0.57404    0 
H3       H      0.79735    0.25       0.5274     0 
H1       H      0.78342    0.21661    0.87132    0 
H2       H      0.78344    0.21659    0.92613    0 
H1       H      0.71661    0.28343    0.87132    0 
H2       H      0.7165     0.28347    0.92595    0 
H1       H      0.62868    0.2166     0.71659    0 
H2       H      0.57387    0.21658    0.71658    0 
H1       H      0.62869    0.28342    0.7834     0 
H2       H      0.57404    0.28347    0.78351    0 
H1       H      0.87132    0.28343    0.71661    0 
H2       H      0.92614    0.2834     0.71658    0 
H3       H      0.97276    0.29744    0.75       0 
H1       H      0.87132    0.21661    0.78342    0 
H2       H      0.92596    0.21651    0.7835     0 
H3       H      0.97277    0.20256    0.75       0 
H1       H      0.7166     0.1287     0.7166     0 
H2       H      0.71658    0.07386    0.71658    0 
H3       H      0.75       0.02725    0.70256    0 
H1       H      0.7834     0.12871    0.7834     0 
H2       H      0.78349    0.07402    0.78349    0 
H3       H      0.75       0.02726    0.79744    0 
H1       H      0.71661    0.37129    0.78341    0 
H2       H      0.71658    0.42614    0.78343    0 
H1       H      0.78341    0.37129    0.71661    0 
H2       H      0.7835     0.42597    0.71652    0 
H3       H      0.75       0.20256    0.97277    0 
H3       H      0.75       0.29744    0.97276    0 
H3       H      0.79744    0.47277    0.75       0 
H3       H      0.70255    0.47277    0.75       0 
H3       H      0.5274     0.25       0.79735    0 
H3       H      0.5274     0.25       0.70265    0 
H1       H      0.7166     0.7166     0.1287     0 
H2       H      0.71658    0.71658    0.07386    0 
H1       H      0.7834     0.7834     0.12871    0 
H2       H      0.78349    0.78349    0.07402    0 
H1       H      0.78341    0.71661    0.37129    0 
H2       H      0.78343    0.71658    0.42614    0 
H3       H      0.79744    0.75       0.47277    0 
H1       H      0.71661    0.78341    0.37129    0 
H2       H      0.71652    0.7835     0.42597    0 
H3       H      0.70255    0.75       0.47277    0 
H1       H      0.62868    0.71659    0.2166     0 
H2       H      0.57387    0.71658    0.21658    0 
H1       H      0.62869    0.7834     0.28342    0 
H2       H      0.57404    0.78351    0.28347    0 
H1       H      0.87132    0.78342    0.21661    0 
H2       H      0.92613    0.78344    0.21659    0 
H3       H      0.97276    0.79745    0.25       0 
H1       H      0.87132    0.71661    0.28343    0 
H2       H      0.92595    0.7165     0.28347    0 
H3       H      0.97276    0.70255    0.25       0 
H1       H      0.71659    0.62868    0.2166     0 
H2       H      0.71658    0.57387    0.21658    0 
H1       H      0.7834     0.62869    0.28342    0 
H2       H      0.78351    0.57404    0.28347    0 
H1       H      0.71661    0.87132    0.28343    0 
H2       H      0.71658    0.92614    0.2834     0 
H3       H      0.75       0.97276    0.29744    0 
H1       H      0.78342    0.87132    0.21661    0 
H2       H      0.7835     0.92596    0.21651    0 
H3       H      0.75       0.97277    0.20256    0 
H3       H      0.75       0.79744    0.02726    0 
H3       H      0.75       0.70256    0.02725    0 
H3       H      0.70265    0.5274     0.25       0 
H3       H      0.79735    0.5274     0.25       0 
H3       H      0.5274     0.75       0.29734    0 
H3       H      0.5274     0.75       0.20266    0 
H3       H      0.70265    0.75       0.5274     0 
H3       H      0.79735    0.75       0.5274     0 
H3       H      0.97276    0.79745    0.75       0 
H3       H      0.97276    0.70255    0.75       0 
H3       H      0.75       0.97276    0.79745    0 
H3       H      0.75       0.97276    0.70255    0 
H1       H      0.71659    0.71659    0.87132    0 
H2       H      0.71651    0.71651    0.92595    0 
H3       H      0.75       0.70255    0.97276    0 
H1       H      0.7834     0.7834     0.87131    0 
H2       H      0.7835     0.7835     0.92597    0 
H3       H      0.75       0.79745    0.97276    0 
H1       H      0.7166     0.78342    0.62868    0 
H2       H      0.71651    0.7835     0.57404    0 
H1       H      0.78342    0.7166     0.62868    0 
H2       H      0.7835     0.71651    0.57404    0 
H1       H      0.7166     0.62868    0.78342    0 
H2       H      0.71651    0.57404    0.7835     0 
H3       H      0.70265    0.5274     0.75       0 
H1       H      0.78342    0.62868    0.7166     0 
H2       H      0.7835     0.57404    0.71651    0 
H3       H      0.79735    0.5274     0.75       0 
H1       H      0.7834     0.87131    0.7834     0 
H2       H      0.7835     0.92597    0.7835     0 
H1       H      0.71659    0.87132    0.71659    0 
H2       H      0.71651    0.92595    0.71651    0 
H1       H      0.62868    0.7166     0.78342    0 
H2       H      0.57404    0.71651    0.7835     0 
H3       H      0.5274     0.75       0.79735    0 
H1       H      0.62868    0.78342    0.7166     0 
H2       H      0.57404    0.7835     0.71651    0 
H3       H      0.5274     0.75       0.70265    0 
H1       H      0.87132    0.71659    0.71659    0 
H2       H      0.92595    0.71651    0.71651    0 
H1       H      0.87131    0.7834     0.7834     0 
H2       H      0.92597    0.7835     0.7835     0 


