data_IRMOF-2

_audit_creation_method RASPA-1.0
_audit_creation_date 2011-3-7
_audit_author_name 'Tina Duren/Houston Frost/Randall Snurr/David Dubbeldam'

_citation_author_name        'M. Eddaoudi, J. Kim, N. Rosi, D. Vodak, J. Wachter, M. Oâ€™Keeffe, and O.M. Yaghi',
_citation_title              'Systematic design of pore size and functionality in isoreticular MOFs and their application in methane storage'
_citation_journal_abbrev     'Science'
_citation_journal_volume     295
_citation_journal_number     5554
_citation_page_first         469
_citation_page_last          472
_citation_year               2002

_cell_length_a    25.7718
_cell_length_b    25.7718
_cell_length_c    25.7718
_cell_angle_alpha 90
_cell_angle_beta  90
_cell_angle_gamma 90
_cell_volume      17117.3

_symmetry_cell_setting          triclinic
_symmetry_space_group_name_Hall 'P 1'
_symmetry_space_group_name_H-M  'P 1'
_symmetry_Int_Tables_number     1

_symmetry_equiv_pos_as_xyz 'x,y,z'

loop_
_atom_site_label
_atom_site_type_symbol
_atom_site_fract_x
_atom_site_fract_y
_atom_site_fract_z
_atom_site_charge
Zn1      Zn     0.20659    0.20659    0.20659    0 
O1       O      0.25       0.25       0.25       0 
O3       O      0.21996    0.21996    0.13383    0 
C6       C      0.25       0.25       0.11058    0 
C5       C      0.25       0.25       0.05496    0 
C4       C      0.20986    0.23552    0.02629    0 
Zn1      Zn     0.79341    0.79341    0.20659    0 
O1       O      0.75       0.75       0.25       0 
O2       O      0.78004    0.78004    0.13383    0 
C6       C      0.75       0.75       0.11058    0 
C5       C      0.75       0.75       0.05496    0 
C6       C      0.79014    0.76448    0.02629    0 
Br1      Br     0.86357    0.78579    0.05162    0 
Zn1      Zn     0.79341    0.20659    0.79341    0 
O1       O      0.75       0.25       0.75       0 
O4       O      0.78004    0.21996    0.86618    0 
C7       C      0.75       0.25       0.88942    0 
C2       C      0.75       0.25       0.94504    0 
C1       C      0.79014    0.23552    0.97371    0 
Zn1      Zn     0.20659    0.79341    0.79341    0 
O1       O      0.25       0.75       0.75       0 
O2       O      0.21996    0.78004    0.86618    0 
C6       C      0.25       0.75       0.88942    0 
C5       C      0.25       0.75       0.94504    0 
C6       C      0.20986    0.76448    0.97371    0 
Br1      Br     0.13643    0.78579    0.94838    0 
O4       O      0.13383    0.21996    0.21996    0 
C7       C      0.11058    0.25       0.25       0 
C2       C      0.05496    0.25       0.25       0 
O4       O      0.13383    0.78004    0.78004    0 
C7       C      0.11058    0.75       0.75       0 
C2       C      0.05496    0.75       0.75       0 
O3       O      0.86618    0.78004    0.21996    0 
C6       C      0.88942    0.75       0.25       0 
C5       C      0.94504    0.75       0.25       0 
O3       O      0.86618    0.21996    0.78004    0 
C6       C      0.88942    0.25       0.75       0 
C5       C      0.94504    0.25       0.75       0 
O5       O      0.21996    0.13383    0.21996    0 
C7       C      0.25       0.11058    0.25       0 
C2       C      0.25       0.05496    0.25       0 
C3       C      0.23552    0.02629    0.20986    0 
O3       O      0.78004    0.13383    0.78004    0 
C6       C      0.75       0.11058    0.75       0 
C5       C      0.75       0.05496    0.75       0 
C4       C      0.76448    0.02629    0.79014    0 
O4       O      0.21996    0.86618    0.78004    0 
C7       C      0.25       0.88942    0.75       0 
C2       C      0.25       0.94504    0.75       0 
C1       C      0.23552    0.97371    0.79014    0 
O2       O      0.78004    0.86618    0.21996    0 
C6       C      0.75       0.88942    0.25       0 
C5       C      0.75       0.94504    0.25       0 
C6       C      0.76448    0.97371    0.20986    0 
Br1      Br     0.78579    0.94838    0.13643    0 
Zn1      Zn     0.20659    0.20659    0.79341    0 
O1       O      0.25       0.25       0.75       0 
O5       O      0.21996    0.21996    0.86618    0 
C7       C      0.25       0.25       0.88942    0 
C2       C      0.25       0.25       0.94504    0 
Zn1      Zn     0.79341    0.79341    0.79341    0 
O1       O      0.75       0.75       0.75       0 
O4       O      0.78004    0.78004    0.86618    0 
C7       C      0.75       0.75       0.88942    0 
C2       C      0.75       0.75       0.94504    0 
Zn1      Zn     0.20659    0.79341    0.20659    0 
O1       O      0.25       0.75       0.25       0 
O4       O      0.21996    0.78004    0.13383    0 
C7       C      0.25       0.75       0.11058    0 
C2       C      0.25       0.75       0.05496    0 
Zn1      Zn     0.79341    0.20659    0.20659    0 
O1       O      0.75       0.25       0.25       0 
O2       O      0.78004    0.21996    0.13383    0 
C6       C      0.75       0.25       0.11058    0 
C5       C      0.75       0.25       0.05496    0 
O2       O      0.21996    0.13383    0.78004    0 
C6       C      0.25       0.11058    0.75       0 
C5       C      0.25       0.05496    0.75       0 
O4       O      0.78004    0.13383    0.21996    0 
C7       C      0.75       0.11058    0.25       0 
C2       C      0.75       0.05496    0.25       0 
O5       O      0.78004    0.86618    0.78004    0 
C7       C      0.75       0.88942    0.75       0 
C2       C      0.75       0.94504    0.75       0 
O3       O      0.21996    0.86618    0.21996    0 
C6       C      0.25       0.88942    0.25       0 
C5       C      0.25       0.94504    0.25       0 
O5       O      0.13383    0.21996    0.78004    0 
C7       C      0.11058    0.25       0.75       0 
C2       C      0.05496    0.25       0.75       0 
C3       C      0.02629    0.23552    0.79014    0 
O5       O      0.13383    0.78004    0.21996    0 
C7       C      0.11058    0.75       0.25       0 
C2       C      0.05496    0.75       0.25       0 
C3       C      0.02629    0.76448    0.20986    0 
O2       O      0.86618    0.21996    0.21996    0 
C6       C      0.88942    0.25       0.25       0 
C5       C      0.94504    0.25       0.25       0 
C6       C      0.97371    0.23552    0.20986    0 
Br1      Br     0.94838    0.21421    0.13643    0 
O2       O      0.86618    0.78004    0.78004    0 
C6       C      0.88942    0.75       0.75       0 
C5       C      0.94504    0.75       0.75       0 
C6       C      0.97371    0.76448    0.79014    0 
Br1      Br     0.94838    0.78579    0.86357    0 
C1       C      0.79014    0.76448    0.97371    0 
C3       C      0.20986    0.23552    0.97371    0 
C1       C      0.20986    0.76448    0.02629    0 
C6       C      0.79014    0.23552    0.02629    0 
Br1      Br     0.86357    0.21421    0.05162    0 
C3       C      0.76448    0.97371    0.79014    0 
C4       C      0.23552    0.97371    0.20986    0 
C1       C      0.76448    0.02629    0.20986    0 
C6       C      0.23552    0.02629    0.79014    0 
Br1      Br     0.21421    0.05162    0.86357    0 
C4       C      0.97371    0.76448    0.20986    0 
C4       C      0.97371    0.23552    0.79014    0 
C1       C      0.02629    0.76448    0.79014    0 
C1       C      0.02629    0.23552    0.20986    0 
Zn1      Zn     0.20659    0.70659    0.70659    0 
O4       O      0.21996    0.71996    0.63382    0 
C7       C      0.25       0.75       0.61058    0 
C2       C      0.25       0.75       0.55496    0 
C1       C      0.20986    0.73552    0.52629    0 
Zn1      Zn     0.79341    0.29341    0.70659    0 
O5       O      0.78004    0.28004    0.63382    0 
C7       C      0.75       0.25       0.61058    0 
C2       C      0.75       0.25       0.55496    0 
C3       C      0.79014    0.26448    0.52629    0 
Zn1      Zn     0.79341    0.70659    0.29341    0 
O4       O      0.78004    0.71996    0.36618    0 
C7       C      0.75       0.75       0.38942    0 
C2       C      0.75       0.75       0.44504    0 
C1       C      0.79014    0.73552    0.47371    0 
Zn1      Zn     0.20659    0.29341    0.29341    0 
O5       O      0.21996    0.28004    0.36617    0 
C7       C      0.25       0.25       0.38942    0 
C2       C      0.25       0.25       0.44504    0 
C3       C      0.20986    0.26448    0.47371    0 
O5       O      0.13383    0.71996    0.71996    0 
O5       O      0.13383    0.28004    0.28004    0 
O2       O      0.86618    0.28004    0.71996    0 
O2       O      0.86618    0.71996    0.28004    0 
O3       O      0.21996    0.63383    0.71996    0 
C6       C      0.25       0.61058    0.75       0 
C5       C      0.25       0.55496    0.75       0 
C4       C      0.23552    0.52629    0.70986    0 
O5       O      0.78004    0.63383    0.28004    0 
C7       C      0.75       0.61058    0.25       0 
C2       C      0.75       0.55496    0.25       0 
C3       C      0.76448    0.52629    0.29014    0 
O2       O      0.21996    0.36618    0.28004    0 
C6       C      0.25       0.38942    0.25       0 
C5       C      0.25       0.44504    0.25       0 
C6       C      0.23552    0.47371    0.29014    0 
Br1      Br     0.21421    0.44838    0.36357    0 
O4       O      0.78004    0.36618    0.71996    0 
C7       C      0.75       0.38942    0.75       0 
C2       C      0.75       0.44504    0.75       0 
C1       C      0.76448    0.47371    0.70986    0 
Zn1      Zn     0.20659    0.70659    0.29341    0 
O2       O      0.21996    0.71996    0.36617    0 
C6       C      0.25       0.75       0.38942    0 
C5       C      0.25       0.75       0.44504    0 
Zn1      Zn     0.79341    0.29341    0.29341    0 
O3       O      0.78004    0.28004    0.36617    0 
C6       C      0.75       0.25       0.38942    0 
C5       C      0.75       0.25       0.44504    0 
Zn1      Zn     0.20659    0.29341    0.70659    0 
O3       O      0.21996    0.28004    0.63383    0 
C6       C      0.25       0.25       0.61058    0 
C5       C      0.25       0.25       0.55496    0 
Zn1      Zn     0.79341    0.70659    0.70659    0 
O2       O      0.78004    0.71996    0.63382    0 
C6       C      0.75       0.75       0.61058    0 
C5       C      0.75       0.75       0.55496    0 
O4       O      0.21996    0.63383    0.28004    0 
C7       C      0.25       0.61058    0.25       0 
C2       C      0.25       0.55496    0.25       0 
O2       O      0.78004    0.63383    0.71996    0 
C6       C      0.75       0.61058    0.75       0 
C5       C      0.75       0.55496    0.75       0 
O3       O      0.78004    0.36618    0.28004    0 
C6       C      0.75       0.38942    0.25       0 
C5       C      0.75       0.44504    0.25       0 
O5       O      0.21996    0.36618    0.71996    0 
C7       C      0.25       0.38942    0.75       0 
C2       C      0.25       0.44504    0.75       0 
O4       O      0.13383    0.71996    0.28004    0 
C1       C      0.02629    0.73552    0.29014    0 
O4       O      0.13383    0.28004    0.71996    0 
C1       C      0.02629    0.26448    0.70986    0 
O3       O      0.86618    0.71996    0.71996    0 
C4       C      0.97371    0.73552    0.70986    0 
O3       O      0.86618    0.28004    0.28004    0 
C4       C      0.97371    0.26448    0.29014    0 
C4       C      0.79014    0.26448    0.47371    0 
C6       C      0.20986    0.73552    0.47371    0 
Br1      Br     0.13643    0.71421    0.44838    0 
C4       C      0.20986    0.26448    0.52629    0 
C6       C      0.79014    0.73552    0.52629    0 
Br1      Br     0.86357    0.71421    0.55162    0 
C4       C      0.76448    0.47371    0.29014    0 
C3       C      0.23552    0.47371    0.70986    0 
C6       C      0.76448    0.52629    0.70986    0 
Br1      Br     0.78579    0.55162    0.63643    0 
C1       C      0.23552    0.52629    0.29014    0 
C6       C      0.97371    0.26448    0.70986    0 
Br1      Br     0.94838    0.28579    0.63643    0 
C6       C      0.97371    0.73552    0.29014    0 
Br1      Br     0.94838    0.71421    0.36357    0 
C3       C      0.02629    0.26448    0.29014    0 
C3       C      0.02629    0.73552    0.70986    0 
Zn1      Zn     0.70659    0.20659    0.70659    0 
O4       O      0.71996    0.21996    0.63382    0 
C1       C      0.70986    0.23552    0.52629    0 
Zn1      Zn     0.29341    0.79341    0.70659    0 
O5       O      0.28004    0.78004    0.63382    0 
C3       C      0.29014    0.76448    0.52629    0 
Zn1      Zn     0.29341    0.20659    0.29341    0 
O4       O      0.28004    0.21996    0.36617    0 
C1       C      0.29014    0.23552    0.47371    0 
Zn1      Zn     0.70659    0.79341    0.29341    0 
O5       O      0.71996    0.78004    0.36618    0 
C3       C      0.70986    0.76448    0.47371    0 
O2       O      0.63383    0.21996    0.71996    0 
C6       C      0.61058    0.25       0.75       0 
C5       C      0.55496    0.25       0.75       0 
O4       O      0.63383    0.78004    0.28004    0 
C7       C      0.61058    0.75       0.25       0 
C2       C      0.55496    0.75       0.25       0 
O5       O      0.36618    0.78004    0.71996    0 
C7       C      0.38942    0.75       0.75       0 
C2       C      0.44504    0.75       0.75       0 
O3       O      0.36618    0.21996    0.28004    0 
C6       C      0.38942    0.25       0.25       0 
C5       C      0.44504    0.25       0.25       0 
O2       O      0.71996    0.13382    0.71996    0 
C6       C      0.73552    0.02629    0.70986    0 
Br1      Br     0.71421    0.05162    0.63643    0 
O4       O      0.28004    0.13383    0.28004    0 
C1       C      0.26448    0.02629    0.29014    0 
O3       O      0.71996    0.86618    0.28004    0 
C4       C      0.73552    0.97371    0.29014    0 
O5       O      0.28004    0.86618    0.71996    0 
C3       C      0.26448    0.97371    0.70986    0 
Zn1      Zn     0.70659    0.20659    0.29341    0 
O2       O      0.71996    0.21996    0.36617    0 
Zn1      Zn     0.29341    0.79341    0.29341    0 
O3       O      0.28004    0.78004    0.36617    0 
Zn1      Zn     0.70659    0.79341    0.70659    0 
O3       O      0.71996    0.78004    0.63382    0 
Zn1      Zn     0.29341    0.20659    0.70659    0 
O2       O      0.28004    0.21996    0.63383    0 
O5       O      0.71996    0.13382    0.28004    0 
O3       O      0.28004    0.13383    0.71996    0 
O2       O      0.28004    0.86618    0.28004    0 
O4       O      0.71996    0.86618    0.71996    0 
O5       O      0.63383    0.21996    0.28004    0 
C7       C      0.61058    0.25       0.25       0 
C2       C      0.55496    0.25       0.25       0 
C3       C      0.52629    0.23552    0.29014    0 
O3       O      0.63383    0.78004    0.71996    0 
C6       C      0.61058    0.75       0.75       0 
C5       C      0.55496    0.75       0.75       0 
C4       C      0.52629    0.76448    0.70986    0 
O4       O      0.36618    0.21996    0.71996    0 
C7       C      0.38942    0.25       0.75       0 
C2       C      0.44504    0.25       0.75       0 
C1       C      0.47371    0.23552    0.70986    0 
O2       O      0.36618    0.78004    0.28004    0 
C6       C      0.38942    0.75       0.25       0 
C5       C      0.44504    0.75       0.25       0 
C6       C      0.47371    0.76448    0.29014    0 
Br1      Br     0.44838    0.78579    0.36357    0 
C4       C      0.29014    0.76448    0.47371    0 
C6       C      0.70986    0.23552    0.47371    0 
Br1      Br     0.63643    0.21421    0.44838    0 
C4       C      0.70986    0.76448    0.52629    0 
C6       C      0.29014    0.23552    0.52629    0 
Br1      Br     0.36357    0.21421    0.55162    0 
C6       C      0.26448    0.97371    0.29014    0 
Br1      Br     0.28579    0.94838    0.36357    0 
C1       C      0.73552    0.97371    0.70986    0 
C4       C      0.26448    0.02629    0.70986    0 
C3       C      0.73552    0.02629    0.29014    0 
C3       C      0.47371    0.76448    0.70986    0 
C4       C      0.47371    0.23552    0.29014    0 
C1       C      0.52629    0.76448    0.29014    0 
C6       C      0.52629    0.23552    0.70986    0 
Br1      Br     0.55162    0.21421    0.63643    0 
Zn1      Zn     0.70659    0.70659    0.20659    0 
O3       O      0.71996    0.71996    0.13383    0 
C4       C      0.70986    0.73552    0.02629    0 
Zn1      Zn     0.29341    0.29341    0.20659    0 
O2       O      0.28004    0.28004    0.13383    0 
C6       C      0.29014    0.26448    0.02629    0 
Br1      Br     0.36357    0.28579    0.05162    0 
Zn1      Zn     0.29341    0.70659    0.79341    0 
O3       O      0.28004    0.71996    0.86618    0 
C4       C      0.29014    0.73552    0.97371    0 
Zn1      Zn     0.70659    0.29341    0.79341    0 
O5       O      0.71996    0.28004    0.86618    0 
C3       C      0.70986    0.26448    0.97371    0 
O5       O      0.63383    0.71996    0.21996    0 
O3       O      0.63383    0.28004    0.78004    0 
O2       O      0.36618    0.28004    0.21996    0 
O4       O      0.36618    0.71996    0.78004    0 
O4       O      0.71996    0.63383    0.21996    0 
C1       C      0.73552    0.52629    0.20986    0 
O2       O      0.28004    0.63383    0.78004    0 
C6       C      0.26448    0.52629    0.79014    0 
Br1      Br     0.28579    0.55162    0.86357    0 
O5       O      0.71996    0.36617    0.78004    0 
C3       C      0.73552    0.47371    0.79014    0 
O3       O      0.28004    0.36618    0.21996    0 
C4       C      0.26448    0.47371    0.20986    0 
Zn1      Zn     0.70659    0.70659    0.79341    0 
O5       O      0.71996    0.71996    0.86618    0 
Zn1      Zn     0.29341    0.29341    0.79341    0 
O4       O      0.28004    0.28004    0.86618    0 
Zn1      Zn     0.70659    0.29341    0.20659    0 
O3       O      0.71996    0.28004    0.13383    0 
Zn1      Zn     0.29341    0.70659    0.20659    0 
O5       O      0.28004    0.71996    0.13383    0 
O3       O      0.71996    0.63383    0.78004    0 
O5       O      0.28004    0.63383    0.21996    0 
O4       O      0.28004    0.36618    0.78004    0 
O2       O      0.71996    0.36617    0.21996    0 
O2       O      0.63383    0.71996    0.78004    0 
C6       C      0.52629    0.73552    0.79014    0 
Br1      Br     0.55162    0.71421    0.86357    0 
O4       O      0.63383    0.28004    0.21996    0 
C1       C      0.52629    0.26448    0.20986    0 
O3       O      0.36618    0.71996    0.21996    0 
C4       C      0.47371    0.73552    0.20986    0 
O5       O      0.36618    0.28004    0.78004    0 
C3       C      0.47371    0.26448    0.79014    0 
C1       C      0.29014    0.26448    0.97371    0 
C3       C      0.70986    0.73552    0.97371    0 
C4       C      0.70986    0.26448    0.02629    0 
C3       C      0.29014    0.73552    0.02629    0 
C1       C      0.26448    0.47371    0.79014    0 
C6       C      0.73552    0.47371    0.20986    0 
Br1      Br     0.71421    0.44838    0.13643    0 
C3       C      0.26448    0.52629    0.20986    0 
C4       C      0.73552    0.52629    0.79014    0 
C6       C      0.47371    0.26448    0.20986    0 
Br1      Br     0.44838    0.28579    0.13643    0 
C1       C      0.47371    0.73552    0.79014    0 
C4       C      0.52629    0.26448    0.79014    0 
C3       C      0.52629    0.73552    0.20986    0 
H1       H      0.54252    0.77571    0.32128    0 
H3       H      0.45748    0.72429    0.17872    0 
H2       H      0.54252    0.72429    0.17872    0 
H3       H      0.45748    0.22429    0.32128    0 
H2       H      0.54252    0.22429    0.32128    0 
H1       H      0.54252    0.27571    0.17872    0 
H3       H      0.95748    0.27571    0.32128    0 
H3       H      0.95748    0.77571    0.17872    0 
H3       H      0.67872    0.27571    0.04252    0 
H3       H      0.67872    0.72429    0.04252    0 
H3       H      0.17872    0.22429    0.04252    0 
H1       H      0.17872    0.77571    0.04252    0 
H2       H      0.04252    0.27571    0.32128    0 
H1       H      0.04252    0.72429    0.32128    0 
H1       H      0.04252    0.27571    0.67872    0 
H3       H      0.17983    0.27531    0.54472    0 
H2       H      0.17872    0.27571    0.45748    0 
H1       H      0.32128    0.22429    0.45748    0 
H3       H      0.32128    0.77571    0.45748    0 
H2       H      0.32128    0.77571    0.54252    0 
H1       H      0.17872    0.72429    0.54252    0 
H1       H      0.45748    0.22429    0.67872    0 
H2       H      0.45748    0.27571    0.82128    0 
H3       H      0.54252    0.27571    0.82128    0 
H2       H      0.45748    0.77571    0.67872    0 
H3       H      0.54252    0.77571    0.67872    0 
H1       H      0.45748    0.72429    0.82128    0 
H1       H      0.82128    0.77571    0.95748    0 
H2       H      0.67872    0.27571    0.95748    0 
H3       H      0.32128    0.72429    0.95748    0 
H2       H      0.04252    0.72429    0.67872    0 
H2       H      0.17872    0.22429    0.95748    0 
H3       H      0.95748    0.22429    0.82128    0 
H3       H      0.95748    0.72429    0.67872    0 
H1       H      0.82128    0.72429    0.45748    0 
H2       H      0.67872    0.77571    0.45748    0 
H3       H      0.67872    0.77571    0.54252    0 
H2       H      0.82128    0.27571    0.54252    0 
H3       H      0.82017    0.27531    0.45528    0 
H1       H      0.67872    0.22429    0.54252    0 
H2       H      0.22469    0.45528    0.67983    0 
H3       H      0.22429    0.54252    0.67872    0 
H1       H      0.27571    0.45748    0.82128    0 
H1       H      0.77571    0.45748    0.67872    0 
H2       H      0.72429    0.45748    0.82128    0 
H3       H      0.72429    0.54252    0.82128    0 
H2       H      0.77571    0.54252    0.32128    0 
H3       H      0.77531    0.45528    0.32017    0 
H1       H      0.72429    0.54252    0.17872    0 
H1       H      0.22469    0.54472    0.32017    0 
H2       H      0.27571    0.54252    0.17872    0 
H3       H      0.27571    0.45748    0.17872    0 
H1       H      0.27571    0.04252    0.32128    0 
H2       H      0.72429    0.04252    0.32128    0 
H3       H      0.27571    0.04252    0.67872    0 
H3       H      0.77571    0.04252    0.82128    0 
H2       H      0.27571    0.95748    0.67872    0 
H1       H      0.72429    0.95748    0.67872    0 
H3       H      0.72429    0.95748    0.32128    0 
H3       H      0.22429    0.95748    0.17872    0 
H2       H      0.04252    0.77571    0.17872    0 
H1       H      0.04252    0.22429    0.17872    0 
H2       H      0.04252    0.22429    0.82128    0 
H2       H      0.22429    0.04252    0.17872    0 
H1       H      0.77571    0.04252    0.17872    0 
H1       H      0.22429    0.95748    0.82128    0 
H2       H      0.77571    0.95748    0.82128    0 
H1       H      0.04252    0.77571    0.82128    0 
H2       H      0.32128    0.72429    0.04252    0 
H2       H      0.67872    0.72429    0.95748    0 
H1       H      0.32128    0.27571    0.95748    0 
H1       H      0.82128    0.22429    0.95748    0 


