data_IRMOF-9

_audit_creation_method RASPA-1.0
_audit_creation_date 2011-3-7
_audit_author_name 'Tina Duren/Houston Frost/Randall Snurr/David Dubbeldam'

_citation_author_name        'M. Eddaoudi, J. Kim, N. Rosi, D. Vodak, J. Wachter, M. Oâ€™Keeffe, and O.M. Yaghi',
_citation_title              'Systematic design of pore size and functionality in isoreticular MOFs and their application in methane storage'
_citation_journal_abbrev     'Science'
_citation_journal_volume     295
_citation_journal_number     5554
_citation_page_first         469
_citation_page_last          472
_citation_year               2002

_cell_length_a    17.1469
_cell_length_b    23.3222
_cell_length_c    25.2552
_cell_angle_alpha 90
_cell_angle_beta  90
_cell_angle_gamma 90
_cell_volume      10099.6

_symmetry_cell_setting          triclinic
_symmetry_space_group_name_Hall 'P 1'
_symmetry_space_group_name_H-M  'P 1'
_symmetry_Int_Tables_number     1

_symmetry_equiv_pos_as_xyz 'x,y,z'

loop_
_atom_site_label
_atom_site_type_symbol
_atom_site_fract_x
_atom_site_fract_y
_atom_site_fract_z
_atom_site_charge
Zn1      Zn     0.7081     0.9191     0          0 
Zn1      Zn     0.702      0.782      0          0 
Zn1      Zn     0.8357     0.8482     0.9372     0 
O1       O      0.7695     0.8488     0          0 
O2       O      0.8129     0.7823     0.1061     0 
O2       O      0.7162     0.7365     0.0628     0 
C1       C      0.7625     0.742      0.1015     0 
C2       C      0.7596     0.7009     0.1442     0 
C3       C      0.7034     0.6601     0.1452     0 
C3       C      0.8077     0.703      0.1881     0 
C4       C      0.6981     0.6212     0.1879     0 
C4       C      0.8084     0.6617     0.2262     0 
C5       C      0.7509     0.62       0.2276     0 
C5       C      0.7441     0.5789     0.2718     0 
C4       C      0.7864     0.5848     0.3142     0 
C4       C      0.7042     0.5291     0.2678     0 
C3       C      0.7814     0.547      0.3584     0 
C3       C      0.7013     0.4879     0.3079     0 
C2       C      0.7361     0.4982     0.355      0 
C1       C      0.7336     0.4569     0.3991     0 
O2       O      0.7742     0.4671     0.4393     0 
O2       O      0.6921     0.4133     0.3931     0 
O2       O      0.9437     0.8458     0.9549     0 
C1       C      0.9736     0.8434     0          0 
C2       C      0.0655     0.8466     0          0 
C5       C      0.2252     0.8522     0          0 
C5       C      0.3118     0.8571     0          0 
C4       C      0.3529     0.8087     0          0 
C4       C      0.3517     0.906      0          0 
C3       C      0.4369     0.8089     0          0 
C3       C      0.4323     0.9064     0          0 
C2       C      0.4762     0.858      0          0 
C1       C      0.5615     0.8565     0          0 
O2       O      0.5955     0.9056     0          0 
O2       O      0.5959     0.8079     0          0 
H1       H      0.6672     0.6577     0.1169     0 
H1       H      0.842      0.7348     0.1928     0 
H2       H      0.6558     0.5949     0.1887     0 
H2       H      0.8486     0.6615     0.2521     0 
H2       H      0.8223     0.6157     0.3158     0 
H2       H      0.6766     0.5217     0.2359     0 
H1       H      0.8092     0.5554     0.39       0 
H1       H      0.6749     0.4527     0.3021     0 
H2       H      0.3261     0.773      0          0 
H2       H      0.3242     0.9414     0          0 
H1       H      0.4645     0.7735     0          0 
H1       H      0.4582     0.9424     0          0 
C3       C      0.109      0.8716     0.9592     0 
C4       C      0.185      0.8724     0.9613     0 
H1       H      0.0829     0.8882     0.9298     0 
H2       H      0.2124     0.889      0.9324     0 
Zn1      Zn     0.2919     0.0809     0          0 
Zn1      Zn     0.298      0.218      0          0 
Zn1      Zn     0.1643     0.1518     0.9372     0 
O1       O      0.2305     0.1512     0          0 
O2       O      0.1871     0.2177     0.1061     0 
O2       O      0.2838     0.2635     0.0628     0 
C1       C      0.2375     0.258      0.1015     0 
C2       C      0.2404     0.2991     0.1442     0 
C3       C      0.2966     0.3399     0.1452     0 
C3       C      0.1923     0.297      0.1881     0 
C4       C      0.3019     0.3788     0.1879     0 
C4       C      0.1916     0.3383     0.2262     0 
C5       C      0.2491     0.38       0.2276     0 
C5       C      0.2559     0.4211     0.2718     0 
C4       C      0.2136     0.4152     0.3142     0 
C4       C      0.2958     0.4709     0.2678     0 
C3       C      0.2186     0.453      0.3584     0 
C3       C      0.2987     0.5121     0.3079     0 
C2       C      0.2639     0.5018     0.355      0 
C1       C      0.2664     0.5431     0.3991     0 
O2       O      0.2258     0.5329     0.4393     0 
O2       O      0.3079     0.5867     0.3931     0 
O2       O      0.0563     0.1542     0.9549     0 
C1       C      0.0264     0.1566     0          0 
C2       C      0.9345     0.1534     0          0 
C5       C      0.7748     0.1478     0          0 
C5       C      0.6882     0.1429     0          0 
C4       C      0.6471     0.1913     0          0 
C4       C      0.6483     0.094      0          0 
C3       C      0.5631     0.1911     0          0 
C3       C      0.5677     0.0936     0          0 
C2       C      0.5238     0.142      0          0 
C1       C      0.4385     0.1435     0          0 
O2       O      0.4045     0.0944     0          0 
O2       O      0.4041     0.1921     0          0 
H1       H      0.3328     0.3423     0.1169     0 
H1       H      0.158      0.2652     0.1928     0 
H2       H      0.3442     0.4051     0.1887     0 
H2       H      0.1514     0.3385     0.2521     0 
H2       H      0.1777     0.3843     0.3158     0 
H2       H      0.3234     0.4783     0.2359     0 
H1       H      0.1908     0.4446     0.39       0 
H1       H      0.3251     0.5473     0.3021     0 
H2       H      0.6739     0.227      0          0 
H2       H      0.6758     0.0586     0          0 
H1       H      0.5355     0.2265     0          0 
H1       H      0.5418     0.0576     0          0 
C3       C      0.8936     0.1769     0.9611     0 
C4       C      0.8172     0.1756     0.9592     0 
H1       H      0.921      0.1954     0.9332     0 
H2       H      0.7904     0.1933     0.9305     0 
Zn1      Zn     0.7919     0.4191     0.5        0 
Zn1      Zn     0.798      0.282      0.5        0 
Zn1      Zn     0.6643     0.3482     0.5628     0 
O1       O      0.7305     0.3488     0.5        0 
O2       O      0.6871     0.2823     0.3939     0 
O2       O      0.7838     0.2365     0.4372     0 
C1       C      0.7375     0.242      0.3985     0 
C2       C      0.7404     0.2009     0.3558     0 
C3       C      0.7966     0.1601     0.3548     0 
C3       C      0.6923     0.203      0.3119     0 
C4       C      0.8019     0.1212     0.3121     0 
C4       C      0.6916     0.1617     0.2738     0 
C5       C      0.7491     0.12       0.2724     0 
C5       C      0.7559     0.0789     0.2282     0 
C4       C      0.7136     0.0848     0.1858     0 
C4       C      0.7958     0.0291     0.2322     0 
C3       C      0.7186     0.047      0.1416     0 
C3       C      0.7987     0.9879     0.1921     0 
C2       C      0.7639     0.9982     0.145      0 
C1       C      0.7664     0.9569     0.1009     0 
O2       O      0.7258     0.9671     0.0607     0 
O2       O      0.8079     0.9133     0.1069     0 
O2       O      0.5563     0.3458     0.5451     0 
C1       C      0.5264     0.3434     0.5        0 
C2       C      0.4345     0.3466     0.5        0 
C5       C      0.2748     0.3522     0.5        0 
C5       C      0.1882     0.3571     0.5        0 
C4       C      0.1471     0.3087     0.5        0 
C4       C      0.1483     0.406      0.5        0 
C3       C      0.0631     0.3089     0.5        0 
C3       C      0.0677     0.4064     0.5        0 
C2       C      0.0238     0.358      0.5        0 
C1       C      0.9385     0.3565     0.5        0 
O2       O      0.9045     0.4056     0.5        0 
O2       O      0.9041     0.3079     0.5        0 
H1       H      0.8328     0.1577     0.3831     0 
H1       H      0.658      0.2348     0.3072     0 
H2       H      0.8442     0.0949     0.3113     0 
H2       H      0.6514     0.1615     0.2479     0 
H2       H      0.6777     0.1157     0.1842     0 
H2       H      0.8234     0.0217     0.2641     0 
H1       H      0.6908     0.0554     0.11       0 
H1       H      0.8251     0.9527     0.1979     0 
H2       H      0.1739     0.273      0.5        0 
H2       H      0.1758     0.4414     0.5        0 
H1       H      0.0355     0.2735     0.5        0 
H1       H      0.0418     0.4424     0.5        0 
C3       C      0.391      0.3716     0.5408     0 
C4       C      0.315      0.3724     0.5387     0 
H1       H      0.4171     0.3882     0.5702     0 
H2       H      0.2876     0.389      0.5676     0 
Zn1      Zn     0.2081     0.5809     0.5        0 
Zn1      Zn     0.202      0.718      0.5        0 
Zn1      Zn     0.3357     0.6518     0.5628     0 
O1       O      0.2695     0.6512     0.5        0 
O2       O      0.3129     0.7177     0.3939     0 
O2       O      0.2162     0.7635     0.4372     0 
C1       C      0.2625     0.758      0.3985     0 
C2       C      0.2596     0.7991     0.3558     0 
C3       C      0.2034     0.8399     0.3548     0 
C3       C      0.3077     0.797      0.3119     0 
C4       C      0.1981     0.8788     0.3121     0 
C4       C      0.3084     0.8383     0.2738     0 
C5       C      0.2509     0.88       0.2724     0 
C5       C      0.2441     0.9211     0.2282     0 
C4       C      0.2864     0.9152     0.1858     0 
C4       C      0.2042     0.9709     0.2322     0 
C3       C      0.2814     0.953      0.1416     0 
C3       C      0.2013     0.0121     0.1921     0 
C2       C      0.2361     0.0018     0.145      0 
C1       C      0.2336     0.0431     0.1009     0 
O2       O      0.2742     0.0329     0.0607     0 
O2       O      0.1921     0.0867     0.1069     0 
O2       O      0.4437     0.6542     0.5451     0 
C1       C      0.4736     0.6566     0.5        0 
C2       C      0.5655     0.6534     0.5        0 
C5       C      0.7252     0.6478     0.5        0 
C5       C      0.8118     0.6429     0.5        0 
C4       C      0.8529     0.6913     0.5        0 
C4       C      0.8517     0.594      0.5        0 
C3       C      0.9369     0.6911     0.5        0 
C3       C      0.9323     0.5936     0.5        0 
C2       C      0.9762     0.642      0.5        0 
C1       C      0.0615     0.6435     0.5        0 
O2       O      0.0955     0.5944     0.5        0 
O2       O      0.0959     0.6921     0.5        0 
H1       H      0.1672     0.8423     0.3831     0 
H1       H      0.342      0.7652     0.3072     0 
H2       H      0.1558     0.9051     0.3113     0 
H2       H      0.3486     0.8385     0.2479     0 
H2       H      0.3223     0.8843     0.1842     0 
H2       H      0.1766     0.9783     0.2641     0 
H1       H      0.3092     0.9446     0.11       0 
H1       H      0.1749     0.0473     0.1979     0 
H2       H      0.8261     0.727      0.5        0 
H2       H      0.8242     0.5586     0.5        0 
H1       H      0.9645     0.7265     0.5        0 
H1       H      0.9582     0.5576     0.5        0 
C3       C      0.6064     0.6769     0.5389     0 
C4       C      0.6828     0.6756     0.5408     0 
H1       H      0.579      0.6954     0.5668     0 
H2       H      0.7096     0.6933     0.5695     0 
Zn1      Zn     0.1643     0.1518     0.0628     0 
O2       O      0.1871     0.2177     0.8939     0 
O2       O      0.2838     0.2635     0.9372     0 
C1       C      0.2375     0.258      0.8985     0 
C2       C      0.2404     0.2991     0.8558     0 
C3       C      0.2966     0.3399     0.8548     0 
C3       C      0.1923     0.297      0.8119     0 
C4       C      0.3019     0.3788     0.8121     0 
C4       C      0.1916     0.3383     0.7738     0 
C5       C      0.2491     0.38       0.7724     0 
C5       C      0.2559     0.4211     0.7282     0 
C4       C      0.2136     0.4152     0.6858     0 
C4       C      0.2958     0.4709     0.7322     0 
C3       C      0.2186     0.453      0.6416     0 
C3       C      0.2987     0.5121     0.6921     0 
C2       C      0.2639     0.5018     0.645      0 
C1       C      0.2664     0.5431     0.6009     0 
O2       O      0.2258     0.5329     0.5607     0 
O2       O      0.3079     0.5867     0.6069     0 
O2       O      0.0563     0.1542     0.0451     0 
H1       H      0.3328     0.3423     0.8831     0 
H1       H      0.158      0.2652     0.8072     0 
H2       H      0.3442     0.4051     0.8113     0 
H2       H      0.1514     0.3385     0.7479     0 
H2       H      0.1777     0.3843     0.6842     0 
H2       H      0.3234     0.4783     0.7641     0 
H1       H      0.1908     0.4446     0.61       0 
H1       H      0.3251     0.5473     0.6979     0 
C3       C      0.891      0.1284     0.0408     0 
C4       C      0.815      0.1276     0.0387     0 
H1       H      0.9171     0.1118     0.0702     0 
H2       H      0.7876     0.111      0.0676     0 
Zn1      Zn     0.8357     0.8482     0.0628     0 
O2       O      0.8129     0.7823     0.8939     0 
O2       O      0.7162     0.7365     0.9372     0 
C1       C      0.7625     0.742      0.8985     0 
C2       C      0.7596     0.7009     0.8558     0 
C3       C      0.7034     0.6601     0.8548     0 
C3       C      0.8077     0.703      0.8119     0 
C4       C      0.6981     0.6212     0.8121     0 
C4       C      0.8084     0.6617     0.7738     0 
C5       C      0.7509     0.62       0.7724     0 
C5       C      0.7441     0.5789     0.7282     0 
C4       C      0.7864     0.5848     0.6858     0 
C4       C      0.7042     0.5291     0.7322     0 
C3       C      0.7814     0.547      0.6416     0 
C3       C      0.7013     0.4879     0.6921     0 
C2       C      0.7361     0.4982     0.645      0 
C1       C      0.7336     0.4569     0.6009     0 
O2       O      0.7742     0.4671     0.5607     0 
O2       O      0.6921     0.4133     0.6069     0 
O2       O      0.9437     0.8458     0.0451     0 
H1       H      0.6672     0.6577     0.8831     0 
H1       H      0.842      0.7348     0.8072     0 
H2       H      0.6558     0.5949     0.8113     0 
H2       H      0.8486     0.6615     0.7479     0 
H2       H      0.8223     0.6157     0.6842     0 
H2       H      0.6766     0.5217     0.7641     0 
H1       H      0.8092     0.5554     0.61       0 
H1       H      0.6749     0.4527     0.6979     0 
C3       C      0.109      0.8716     0.0408     0 
C4       C      0.185      0.8724     0.0387     0 
H1       H      0.0829     0.8882     0.0702     0 
H2       H      0.2124     0.889      0.0676     0 
Zn1      Zn     0.3357     0.6518     0.4372     0 
O2       O      0.3129     0.7177     0.6061     0 
O2       O      0.2162     0.7635     0.5628     0 
C1       C      0.2625     0.758      0.6015     0 
C2       C      0.2596     0.7991     0.6442     0 
C3       C      0.2034     0.8399     0.6452     0 
C3       C      0.3077     0.797      0.6881     0 
C4       C      0.1981     0.8788     0.6879     0 
C4       C      0.3084     0.8383     0.7262     0 
C5       C      0.2509     0.88       0.7276     0 
C5       C      0.2441     0.9211     0.7718     0 
C4       C      0.2864     0.9152     0.8142     0 
C4       C      0.2042     0.9709     0.7678     0 
C3       C      0.2814     0.953      0.8584     0 
C3       C      0.2013     0.0121     0.8079     0 
C2       C      0.2361     0.0018     0.855      0 
C1       C      0.2336     0.0431     0.8991     0 
O2       O      0.2742     0.0329     0.9393     0 
O2       O      0.1921     0.0867     0.8931     0 
O2       O      0.4437     0.6542     0.4549     0 
H1       H      0.1672     0.8423     0.6169     0 
H1       H      0.342      0.7652     0.6928     0 
H2       H      0.1558     0.9051     0.6887     0 
H2       H      0.3486     0.8385     0.7521     0 
H2       H      0.3223     0.8843     0.8158     0 
H2       H      0.1766     0.9783     0.7359     0 
H1       H      0.3092     0.9446     0.89       0 
H1       H      0.1749     0.0473     0.8021     0 
C3       C      0.609      0.6284     0.4592     0 
C4       C      0.685      0.6276     0.4613     0 
H1       H      0.5829     0.6118     0.4298     0 
H2       H      0.7124     0.611      0.4324     0 
Zn1      Zn     0.6643     0.3482     0.4372     0 
O2       O      0.6871     0.2823     0.6061     0 
O2       O      0.7838     0.2365     0.5628     0 
C1       C      0.7375     0.242      0.6015     0 
C2       C      0.7404     0.2009     0.6442     0 
C3       C      0.7966     0.1601     0.6452     0 
C3       C      0.6923     0.203      0.6881     0 
C4       C      0.8019     0.1212     0.6879     0 
C4       C      0.6916     0.1617     0.7262     0 
C5       C      0.7491     0.12       0.7276     0 
C5       C      0.7559     0.0789     0.7718     0 
C4       C      0.7136     0.0848     0.8142     0 
C4       C      0.7958     0.0291     0.7678     0 
C3       C      0.7186     0.047      0.8584     0 
C3       C      0.7987     0.9879     0.8079     0 
C2       C      0.7639     0.9982     0.855      0 
C1       C      0.7664     0.9569     0.8991     0 
O2       O      0.7258     0.9671     0.9393     0 
O2       O      0.8079     0.9133     0.8931     0 
O2       O      0.5563     0.3458     0.4549     0 
H1       H      0.8328     0.1577     0.6169     0 
H1       H      0.658      0.2348     0.6928     0 
H2       H      0.8442     0.0949     0.6887     0 
H2       H      0.6514     0.1615     0.7521     0 
H2       H      0.6777     0.1157     0.8158     0 
H2       H      0.8234     0.0217     0.7359     0 
H1       H      0.6908     0.0554     0.89       0 
H1       H      0.8251     0.9527     0.8021     0 
C3       C      0.3936     0.3231     0.4611     0 
C4       C      0.3172     0.3244     0.4592     0 
H1       H      0.421      0.3046     0.4332     0 
H2       H      0.2904     0.3067     0.4305     0 


