data_IRMOF-5

_audit_creation_method RASPA-1.0
_audit_creation_date 2011-3-7
_audit_author_name 'Tina Duren/Houston Frost/Randall Snurr/David Dubbeldam'

_citation_author_name        'M. Eddaoudi, J. Kim, N. Rosi, D. Vodak, J. Wachter, M. Oâ€™Keeffe, and O.M. Yaghi',
_citation_title              'Systematic design of pore size and functionality in isoreticular MOFs and their application in methane storage'
_citation_journal_abbrev     'Science'
_citation_journal_volume     295
_citation_journal_number     5554
_citation_page_first         469
_citation_page_last          472
_citation_year               2002

_cell_length_a    25.7636
_cell_length_b    25.7636
_cell_length_c    25.7636
_cell_angle_alpha 90
_cell_angle_beta  90
_cell_angle_gamma 90
_cell_volume      17100.9

_symmetry_cell_setting          triclinic
_symmetry_space_group_name_Hall 'P 1'
_symmetry_space_group_name_H-M  'P 1'
_symmetry_Int_Tables_number     1

_symmetry_equiv_pos_as_xyz 'x,y,z'

loop_
_atom_site_label
_atom_site_type_symbol
_atom_site_fract_x
_atom_site_fract_y
_atom_site_fract_z
_atom_site_charge
O1       O      0.25       0.25       0.25       0 
C1       C      0.25       0.11322    0.25       0 
C2       C      0.25       0.05388    0.25       0 
C3       C      0.20572    0.02554    0.25       0 
O3       O      0.16406    0.05121    0.25       0 
C5       C      0.14076    0.05103    0.30006    0 
C6       C      0.09477    0.08858    0.30024    0 
C7       C      0.04837    0.06792    0.26926    0 
C8       C      0.50403    0.10701    0.27761    0 
C1       C      0.25       0.38678    0.25       0 
C2       C      0.25       0.44612    0.25       0 
C3       C      0.29428    0.47446    0.25       0 
O3       O      0.33594    0.44879    0.25       0 
C5       C      0.38599    0.46744    0.23465    0 
C6       C      0.42119    0.41975    0.22967    0 
C7       C      0.47797    0.43381    0.21936    0 
C8       C      0.01107    0.38628    0.28661    0 
C4       C      0.29428    0.02554    0.25       0 
C9       C      0.45498    0.08208    0.25572    0 
C4       C      0.20572    0.47446    0.25       0 
C9       C      0.06793    0.40043    0.29354    0 
C1       C      0.25       0.25       0.11322    0 
C2       C      0.25       0.25       0.05388    0 
C3       C      0.25       0.20572    0.02554    0 
O3       O      0.25       0.16406    0.05121    0 
C5       C      0.1992     0.14577    0.06025    0 
C6       C      0.2003     0.09918    0.09721    0 
C7       C      0.22363    0.0507     0.07202    0 
C8       C      0.27943    0.50394    0.10638    0 
C1       C      0.25       0.25       0.38678    0 
C2       C      0.25       0.25       0.44612    0 
C3       C      0.25       0.29428    0.47446    0 
O3       O      0.25       0.33594    0.44879    0 
C5       C      0.23742    0.38661    0.46774    0 
C6       C      0.23354    0.42191    0.42006    0 
C7       C      0.22547    0.47906    0.43394    0 
C8       C      0.28355    0.01081    0.38614    0 
C4       C      0.25       0.29428    0.02554    0 
C9       C      0.25987    0.45433    0.08063    0 
C4       C      0.25       0.20572    0.47446    0 
C9       C      0.28565    0.06842    0.39838    0 
C1       C      0.11322    0.25       0.25       0 
C2       C      0.05388    0.25       0.25       0 
C3       C      0.02554    0.25       0.20572    0 
O3       O      0.05121    0.25       0.16406    0 
C5       C      0.04458    0.20232    0.1364     0 
C6       C      0.0798     0.20201    0.08839    0 
C7       C      0.05464    0.2218     0.03803    0 
C8       C      0.10906    0.23093    0.50486    0 
C1       C      0.38678    0.25       0.25       0 
C2       C      0.44612    0.25       0.25       0 
C3       C      0.47446    0.25       0.29428    0 
O3       O      0.44879    0.25       0.33594    0 
C5       C      0.46737    0.23339    0.38563    0 
C6       C      0.41974    0.22782    0.4208     0 
C7       C      0.43395    0.21665    0.47739    0 
C8       C      0.38457    0.28997    0.01024    0 
C4       C      0.02554    0.25       0.29428    0 
C9       C      0.08716    0.25438    0.45505    0 
C4       C      0.47446    0.25       0.20572    0 
C9       C      0.39717    0.29604    0.06776    0 
Zn1      Zn     0.20653    0.20652    0.29347    0 
O2       O      0.13566    0.2188     0.2812     0 
Zn1      Zn     0.29348    0.29348    0.29347    0 
O2       O      0.36434    0.2812     0.2812     0 
Zn1      Zn     0.20653    0.29347    0.20652    0 
O2       O      0.13566    0.2812     0.2188     0 
Zn1      Zn     0.29348    0.20653    0.20652    0 
O2       O      0.36434    0.2188     0.2188     0 
O2       O      0.2188     0.2188     0.36434    0 
O2       O      0.2812     0.2188     0.13566    0 
O2       O      0.2812     0.2812     0.36434    0 
O2       O      0.2188     0.2812     0.13566    0 
O2       O      0.2188     0.13566    0.2812     0 
O2       O      0.2188     0.36434    0.2188     0 
O2       O      0.2812     0.13566    0.2188     0 
O2       O      0.2812     0.36434    0.2812     0 
Zn1      Zn     0.20653    0.20652    0.70652    0 
O1       O      0.25       0.25       0.75       0 
O2       O      0.2188     0.13566    0.7188     0 
C1       C      0.25       0.11322    0.75       0 
C2       C      0.25       0.05388    0.75       0 
C4       C      0.20572    0.02554    0.75       0 
C9       C      0.05392    0.1001     0.83904    0 
Zn1      Zn     0.29348    0.29348    0.70652    0 
O2       O      0.2812     0.36434    0.7188     0 
C1       C      0.25       0.38678    0.75       0 
C2       C      0.25       0.44612    0.75       0 
C4       C      0.29428    0.47446    0.75       0 
C9       C      0.43115    0.39698    0.78934    0 
Zn1      Zn     0.29348    0.20653    0.79347    0 
O2       O      0.2812     0.13566    0.7812     0 
C3       C      0.29428    0.02554    0.75       0 
O3       O      0.33594    0.05121    0.75       0 
C5       C      0.35454    0.05802    0.69858    0 
C6       C      0.40172    0.09432    0.6988     0 
C7       C      0.44964    0.06915    0.72366    0 
C8       C      0.00081    0.11579    0.81817    0 
Zn1      Zn     0.20653    0.29348    0.79347    0 
O2       O      0.2188     0.36434    0.7812     0 
C3       C      0.20572    0.47446    0.75       0 
O3       O      0.16406    0.44879    0.75       0 
C5       C      0.11305    0.46729    0.73858    0 
C6       C      0.07812    0.41954    0.7358     0 
C7       C      0.02157    0.43362    0.72564    0 
C8       C      0.48864    0.38471    0.78256    0 
O2       O      0.2188     0.2188     0.63566    0 
C1       C      0.25       0.25       0.61322    0 
C2       C      0.25       0.25       0.55388    0 
C3       C      0.25       0.20572    0.52554    0 
O3       O      0.25       0.16406    0.55121    0 
C5       C      0.24552    0.11245    0.531      0 
C6       C      0.23922    0.07595    0.57743    0 
C7       C      0.24564    0.01889    0.56261    0 
C8       C      0.20972    0.49017    0.61573    0 
O2       O      0.2188     0.2812     0.86434    0 
C1       C      0.25       0.25       0.88678    0 
C2       C      0.25       0.25       0.94612    0 
C3       C      0.25       0.29428    0.97446    0 
O3       O      0.25       0.33594    0.94879    0 
C5       C      0.19977    0.35905    0.94912    0 
C6       C      0.19904    0.40591    0.91262    0 
C7       C      0.22918    0.4524     0.93462    0 
C8       C      0.23456    0.99852    0.90607    0 
O2       O      0.2812     0.2812     0.63566    0 
C4       C      0.25       0.29428    0.52554    0 
C9       C      0.19988    0.4332     0.60306    0 
O2       O      0.2812     0.2188     0.86434    0 
C4       C      0.25       0.20572    0.97446    0 
C9       C      0.27178    0.03927    0.92746    0 
O2       O      0.13566    0.2188     0.7188     0 
C1       C      0.11322    0.25       0.75       0 
C2       C      0.05388    0.25       0.75       0 
C3       C      0.02554    0.25       0.70572    0 
O3       O      0.05121    0.25       0.66406    0 
C5       C      0.0514     0.19969    0.64113    0 
C6       C      0.08937    0.19895    0.59543    0 
C7       C      0.06752    0.22645    0.54732    0 
C8       C      0.09391    0.2177     0.99299    0 
O2       O      0.36434    0.2188     0.7812     0 
C1       C      0.38678    0.25       0.75       0 
C2       C      0.44612    0.25       0.75       0 
C3       C      0.47446    0.25       0.79428    0 
O3       O      0.44879    0.25       0.83594    0 
C5       C      0.46736    0.26421    0.88629    0 
C6       C      0.41959    0.27168    0.92085    0 
C7       C      0.43365    0.28085    0.97783    0 
C8       C      0.38486    0.20799    0.50994    0 
O2       O      0.13566    0.2812     0.7812     0 
C4       C      0.02554    0.25       0.79428    0 
C9       C      0.07201    0.23786    0.94182    0 
O2       O      0.36434    0.2812     0.7188     0 
C4       C      0.47446    0.25       0.70572    0 
C9       C      0.39766    0.2002     0.56722    0 
Zn1      Zn     0.20653    0.70652    0.20652    0 
O1       O      0.25       0.75       0.25       0 
O2       O      0.2188     0.63566    0.2188     0 
C1       C      0.25       0.61322    0.25       0 
C2       C      0.25       0.55388    0.25       0 
C3       C      0.20572    0.52554    0.25       0 
O3       O      0.16406    0.55121    0.25       0 
C5       C      0.11319    0.53218    0.26176    0 
C6       C      0.07766    0.57953    0.2661     0 
C7       C      0.02071    0.56502    0.27492    0 
C8       C      0.48978    0.61571    0.20989    0 
Zn1      Zn     0.29348    0.79348    0.20652    0 
O2       O      0.2812     0.86434    0.2188     0 
C1       C      0.25       0.88678    0.25       0 
C2       C      0.25       0.94612    0.25       0 
C3       C      0.29428    0.97446    0.25       0 
O3       O      0.33594    0.94879    0.25       0 
C5       C      0.36006    0.94998    0.2003     0 
C6       C      0.40612    0.91232    0.19977    0 
C7       C      0.45275    0.9336     0.23013    0 
C8       C      0.99811    0.90014    0.23384    0 
Zn1      Zn     0.29348    0.70652    0.29347    0 
O2       O      0.2812     0.63566    0.2812     0 
C4       C      0.29428    0.52554    0.25       0 
C9       C      0.43263    0.60304    0.20101    0 
Zn1      Zn     0.20653    0.79347    0.29347    0 
O2       O      0.2188     0.86434    0.2812     0 
C4       C      0.20572    0.97446    0.25       0 
C9       C      0.04501    0.92388    0.26105    0 
O2       O      0.2188     0.7188     0.13566    0 
C1       C      0.25       0.75       0.11322    0 
C2       C      0.25       0.75       0.05388    0 
C3       C      0.25       0.70572    0.02554    0 
O3       O      0.25       0.66406    0.05121    0 
C5       C      0.30148    0.64567    0.05825    0 
C6       C      0.30127    0.59863    0.0946     0 
C7       C      0.27818    0.55018    0.06881    0 
C8       C      0.22126    0.00498    0.10983    0 
O2       O      0.2188     0.7812     0.36434    0 
C1       C      0.25       0.75       0.38678    0 
C2       C      0.25       0.75       0.44612    0 
C3       C      0.25       0.79428    0.47446    0 
O3       O      0.25       0.83594    0.44879    0 
C5       C      0.26296    0.8865     0.46794    0 
C6       C      0.26737    0.92208    0.42063    0 
C7       C      0.2796     0.97807    0.43528    0 
C8       C      0.21769    0.51142    0.3846     0 
O2       O      0.2812     0.7812     0.13566    0 
C4       C      0.25       0.79428    0.02554    0 
C9       C      0.23584    0.95384    0.08399    0 
O2       O      0.2812     0.7188     0.36434    0 
C4       C      0.25       0.70572    0.47446    0 
C9       C      0.21217    0.56906    0.39679    0 
O2       O      0.13566    0.7188     0.2188     0 
C1       C      0.11322    0.75       0.25       0 
C2       C      0.05388    0.75       0.25       0 
C4       C      0.02554    0.75       0.20572    0 
C9       C      0.08296    0.76137    0.04318    0 
O2       O      0.36434    0.7188     0.2812     0 
C1       C      0.38678    0.75       0.25       0 
C2       C      0.44612    0.75       0.25       0 
C4       C      0.47446    0.75       0.29428    0 
C9       C      0.39681    0.78985    0.43125    0 
O2       O      0.13566    0.7812     0.2812     0 
C3       C      0.02554    0.75       0.29428    0 
O3       O      0.05121    0.75       0.33594    0 
C5       C      0.05108    0.80003    0.35949    0 
C6       C      0.08719    0.80008    0.40673    0 
C7       C      0.06561    0.76831    0.45238    0 
C8       C      0.10421    0.73056    0.9973     0 
O2       O      0.36434    0.7812     0.2188     0 
C3       C      0.47446    0.75       0.20572    0 
O3       O      0.44879    0.75       0.16406    0 
C5       C      0.46851    0.75722    0.11272    0 
C6       C      0.42125    0.76206    0.07719    0 
C7       C      0.43526    0.76001    0.01965    0 
C8       C      0.38455    0.78236    0.48865    0 
O1       O      0.25       0.75       0.75       0 
C1       C      0.25       0.61322    0.75       0 
C2       C      0.25       0.55388    0.75       0 
C4       C      0.20572    0.52554    0.75       0 
C9       C      0.07274    0.59929    0.7321     0 
C1       C      0.25       0.88678    0.75       0 
C2       C      0.25       0.94612    0.75       0 
C4       C      0.29428    0.97446    0.75       0 
C9       C      0.45583    0.91776    0.73899    0 
C3       C      0.29428    0.52554    0.75       0 
O3       O      0.33594    0.55121    0.75       0 
C5       C      0.38566    0.533      0.7669     0 
C6       C      0.42092    0.58065    0.77116    0 
C7       C      0.47725    0.56655    0.78364    0 
C8       C      0.01485    0.61076    0.7338     0 
C3       C      0.20572    0.97446    0.75       0 
O3       O      0.16406    0.94879    0.75       0 
C5       C      0.13475    0.95493    0.79615    0 
C6       C      0.09737    0.90882    0.80154    0 
C7       C      0.04416    0.92611    0.82171    0 
C8       C      0.50294    0.89524    0.76698    0 
C1       C      0.25       0.75       0.61322    0 
C2       C      0.25       0.75       0.55388    0 
C3       C      0.25       0.70572    0.52554    0 
O3       O      0.25       0.66406    0.55121    0 
C5       C      0.23239    0.61458    0.53308    0 
C6       C      0.22821    0.57931    0.58069    0 
C7       C      0.21633    0.5229     0.56653    0 
C8       C      0.25183    0.98475    0.61125    0 
C1       C      0.25       0.75       0.88678    0 
C2       C      0.25       0.75       0.94612    0 
C3       C      0.25       0.79428    0.97446    0 
O3       O      0.25       0.83594    0.94879    0 
C5       C      0.19952    0.85792    0.94798    0 
C6       C      0.20024    0.90712    0.91527    0 
C7       C      0.23709    0.94819    0.93758    0 
C8       C      0.23077    0.49691    0.89508    0 
C4       C      0.25       0.79428    0.52554    0 
C9       C      0.26803    0.9298     0.59775    0 
C4       C      0.25       0.70572    0.97446    0 
C9       C      0.25763    0.54493    0.91707    0 
C1       C      0.11322    0.75       0.75       0 
C2       C      0.05388    0.75       0.75       0 
C4       C      0.02554    0.75       0.70572    0 
C9       C      0.08446    0.73626    0.54364    0 
C1       C      0.38678    0.75       0.75       0 
C2       C      0.44612    0.75       0.75       0 
C4       C      0.47446    0.75       0.79428    0 
C9       C      0.39936    0.75562    0.92877    0 
C3       C      0.02554    0.75       0.79428    0 
O3       O      0.05121    0.75       0.83594    0 
C5       C      0.05079    0.69977    0.85907    0 
C6       C      0.08727    0.6989     0.90602    0 
C7       C      0.0659     0.73046    0.95168    0 
C8       C      0.10572    0.76502    0.49642    0 
C3       C      0.47446    0.75       0.70572    0 
O3       O      0.44879    0.75       0.66406    0 
C5       C      0.46775    0.76215    0.6133     0 
C6       C      0.42007    0.76572    0.57798    0 
C7       C      0.43393    0.77489    0.521      0 
C8       C      0.38612    0.76014    0.98618    0 
Zn1      Zn     0.20653    0.70652    0.79348    0 
O2       O      0.13566    0.7188     0.7812     0 
Zn1      Zn     0.29348    0.79348    0.79348    0 
O2       O      0.36434    0.7812     0.7812     0 
Zn1      Zn     0.20653    0.79347    0.70652    0 
O2       O      0.13566    0.7812     0.7188     0 
Zn1      Zn     0.29348    0.70653    0.70652    0 
O2       O      0.36434    0.7188     0.7188     0 
O2       O      0.2188     0.7188     0.86434    0 
O2       O      0.2812     0.7188     0.63566    0 
O2       O      0.2812     0.7812     0.86434    0 
O2       O      0.2188     0.7812     0.63566    0 
O2       O      0.2188     0.63566    0.7812     0 
O2       O      0.2188     0.86434    0.7188     0 
O2       O      0.2812     0.63566    0.7188     0 
O2       O      0.2812     0.86434    0.7812     0 
Zn1      Zn     0.70652    0.20652    0.20652    0 
O1       O      0.75       0.25       0.25       0 
O2       O      0.7188     0.13566    0.2188     0 
C1       C      0.75       0.11322    0.25       0 
C2       C      0.75       0.05388    0.25       0 
C3       C      0.70572    0.02554    0.25       0 
O3       O      0.66406    0.05121    0.25       0 
C5       C      0.64529    0.05798    0.30137    0 
C6       C      0.59829    0.09445    0.30112    0 
C7       C      0.55027    0.06939    0.27636    0 
C8       C      0.00613    0.10948    0.26635    0 
Zn1      Zn     0.79348    0.29348    0.20652    0 
O2       O      0.7812     0.36434    0.2188     0 
C1       C      0.75       0.38678    0.25       0 
C2       C      0.75       0.44612    0.25       0 
C3       C      0.79428    0.47446    0.25       0 
O3       O      0.83594    0.44879    0.25       0 
C5       C      0.88641    0.46763    0.26359    0 
C6       C      0.92167    0.42019    0.26789    0 
C7       C      0.97786    0.43492    0.27928    0 
C8       C      0.51063    0.38463    0.21158    0 
Zn1      Zn     0.79348    0.20652    0.29347    0 
O2       O      0.7812     0.13566    0.2812     0 
C4       C      0.79428    0.02554    0.25       0 
C9       C      0.95646    0.08974    0.24112    0 
Zn1      Zn     0.70652    0.29348    0.29347    0 
O2       O      0.7188     0.36434    0.2812     0 
C4       C      0.70572    0.47446    0.25       0 
C9       C      0.56801    0.39742    0.20463    0 
O2       O      0.7188     0.2188     0.13566    0 
C1       C      0.75       0.25       0.11322    0 
C2       C      0.75       0.25       0.05388    0 
C4       C      0.75       0.20572    0.02554    0 
C9       C      0.80392    0.06542    0.08226    0 
O2       O      0.7188     0.2812     0.36434    0 
C1       C      0.75       0.25       0.38678    0 
C2       C      0.75       0.25       0.44612    0 
C4       C      0.75       0.29428    0.47446    0 
C9       C      0.78769    0.43075    0.39742    0 
O2       O      0.7812     0.2812     0.13566    0 
C3       C      0.75       0.29428    0.02554    0 
O3       O      0.75       0.33594    0.05121    0 
C5       C      0.69849    0.35384    0.05895    0 
C6       C      0.69866    0.39852    0.09795    0 
C7       C      0.71887    0.44917    0.07415    0 
C8       C      0.80244    0.00939    0.10114    0 
O2       O      0.7812     0.2188     0.36434    0 
C3       C      0.75       0.20572    0.47446    0 
O3       O      0.75       0.16406    0.44879    0 
C5       C      0.75382    0.11248    0.46905    0 
C6       C      0.75909    0.07654    0.42228    0 
C7       C      0.75341    0.01931    0.4364     0 
C8       C      0.78224    0.48839    0.38523    0 
O2       O      0.63566    0.2188     0.2188     0 
C1       C      0.61322    0.25       0.25       0 
C2       C      0.55388    0.25       0.25       0 
C3       C      0.52554    0.25       0.20572    0 
O3       O      0.55121    0.25       0.16406    0 
C5       C      0.53128    0.24446    0.11245    0 
C6       C      0.57825    0.24032    0.07651    0 
C7       C      0.56402    0.24334    0.01901    0 
C8       C      0.61571    0.20597    0.49055    0 
O2       O      0.86434    0.2188     0.2812     0 
C1       C      0.88678    0.25       0.25       0 
C2       C      0.94612    0.25       0.25       0 
C3       C      0.97446    0.25       0.29428    0 
O3       O      0.94879    0.25       0.33594    0 
C5       C      0.94865    0.19977    0.35904    0 
C6       C      0.91151    0.19939    0.40539    0 
C7       C      0.93315    0.22934    0.45212    0 
C8       C      0.88758    0.27617    0.99349    0 
O2       O      0.63566    0.2812     0.2812     0 
C4       C      0.52554    0.25       0.29428    0 
C9       C      0.6027     0.19768    0.43338    0 
O2       O      0.86434    0.2812     0.2188     0 
C4       C      0.97446    0.25       0.20572    0 
C9       C      0.90848    0.25523    0.04471    0 
O1       O      0.75       0.25       0.75       0 
C1       C      0.75       0.11322    0.75       0 
C2       C      0.75       0.05388    0.75       0 
C4       C      0.70572    0.02554    0.75       0 
C9       C      0.54507    0.08194    0.74402    0 
C1       C      0.75       0.38678    0.75       0 
C2       C      0.75       0.44612    0.75       0 
C4       C      0.79428    0.47446    0.75       0 
C9       C      0.9315     0.39803    0.71462    0 
C3       C      0.79428    0.02554    0.75       0 
O3       O      0.83594    0.05121    0.75       0 
C5       C      0.87271    0.03987    0.78926    0 
C6       C      0.90849    0.08723    0.79383    0 
C7       C      0.95774    0.07486    0.82519    0 
C8       C      0.49586    0.10685    0.72253    0 
C3       C      0.70572    0.47446    0.75       0 
O3       O      0.66406    0.44879    0.75       0 
C5       C      0.61342    0.46775    0.76269    0 
C6       C      0.57809    0.42011    0.76647    0 
C7       C      0.52101    0.43404    0.77492    0 
C8       C      0.98876    0.38464    0.7192     0 
C1       C      0.75       0.25       0.61322    0 
C2       C      0.75       0.25       0.55388    0 
C4       C      0.75       0.20572    0.52554    0 
C9       C      0.70879    0.06829    0.60369    0 
C1       C      0.75       0.25       0.88678    0 
C2       C      0.75       0.25       0.94612    0 
C4       C      0.75       0.29428    0.97446    0 
C9       C      0.72055    0.42951    0.91398    0 
C3       C      0.75       0.29428    0.52554    0 
O3       O      0.75       0.33594    0.55121    0 
C5       C      0.77214    0.38391    0.5338     0 
C6       C      0.77815    0.41898    0.58143    0 
C7       C      0.79222    0.47487    0.56694    0 
C8       C      0.71122    0.01033    0.61516    0 
C3       C      0.75       0.20572    0.97446    0 
O3       O      0.75       0.16406    0.94879    0 
C5       C      0.801      0.14465    0.94222    0 
C6       C      0.79855    0.09836    0.90533    0 
C7       C      0.76971    0.05234    0.92982    0 
C8       C      0.71839    0.48567    0.89534    0 
C1       C      0.61322    0.25       0.75       0 
C2       C      0.55388    0.25       0.75       0 
C3       C      0.52554    0.25       0.70572    0 
O3       O      0.55121    0.25       0.66406    0 
C5       C      0.53312    0.23195    0.61466    0 
C6       C      0.58087    0.22608    0.57971    0 
C7       C      0.56666    0.21419    0.52327    0 
C8       C      0.61323    0.2433     0.98553    0 
C1       C      0.88678    0.25       0.75       0 
C2       C      0.94612    0.25       0.75       0 
C3       C      0.97446    0.25       0.79428    0 
O3       O      0.94879    0.25       0.83594    0 
C5       C      0.94861    0.30083    0.85773    0 
C6       C      0.90932    0.30328    0.90212    0 
C7       C      0.92962    0.27678    0.95131    0 
C8       C      0.89215    0.23392    0.49509    0 
C4       C      0.52554    0.25       0.79428    0 
C9       C      0.60031    0.24797    0.92807    0 
C4       C      0.97446    0.25       0.70572    0 
C9       C      0.9138     0.26059    0.54336    0 
Zn1      Zn     0.70652    0.20652    0.79348    0 
O2       O      0.63566    0.2188     0.7812     0 
Zn1      Zn     0.79348    0.29348    0.79348    0 
O2       O      0.86434    0.2812     0.7812     0 
Zn1      Zn     0.70652    0.29347    0.70652    0 
O2       O      0.63566    0.2812     0.7188     0 
Zn1      Zn     0.79348    0.20652    0.70652    0 
O2       O      0.86434    0.2188     0.7188     0 
O2       O      0.7188     0.2188     0.86434    0 
O2       O      0.7812     0.2188     0.63566    0 
O2       O      0.7812     0.2812     0.86434    0 
O2       O      0.7188     0.2812     0.63566    0 
O2       O      0.7188     0.13566    0.7812     0 
O2       O      0.7188     0.36434    0.7188     0 
O2       O      0.7812     0.13566    0.7188     0 
O2       O      0.7812     0.36434    0.7812     0 
O1       O      0.75       0.75       0.25       0 
C1       C      0.75       0.61322    0.25       0 
C2       C      0.75       0.55388    0.25       0 
C3       C      0.70572    0.52554    0.25       0 
O3       O      0.66406    0.55121    0.25       0 
C5       C      0.61363    0.53272    0.23565    0 
C6       C      0.57864    0.58051    0.23041    0 
C7       C      0.52209    0.56652    0.21879    0 
C8       C      0.98795    0.61435    0.28146    0 
C1       C      0.75       0.88678    0.25       0 
C2       C      0.75       0.94612    0.25       0 
C3       C      0.79428    0.97446    0.25       0 
O3       O      0.83594    0.94879    0.25       0 
C5       C      0.85918    0.94973    0.20043    0 
C6       C      0.90714    0.91554    0.20047    0 
C7       C      0.95215    0.93814    0.23224    0 
C8       C      0.49688    0.89366    0.23239    0 
C4       C      0.79428    0.52554    0.25       0 
C9       C      0.93028    0.6021     0.28585    0 
C4       C      0.70572    0.97446    0.25       0 
C9       C      0.54465    0.91582    0.25956    0 
C1       C      0.75       0.75       0.11322    0 
C2       C      0.75       0.75       0.05388    0 
C4       C      0.75       0.70572    0.02554    0 
C9       C      0.73591    0.54414    0.09292    0 
C1       C      0.75       0.75       0.38678    0 
C2       C      0.75       0.75       0.44612    0 
C4       C      0.75       0.79428    0.47446    0 
C9       C      0.75278    0.92835    0.40093    0 
C3       C      0.75       0.79428    0.02554    0 
O3       O      0.75       0.83594    0.05121    0 
C5       C      0.78534    0.87485    0.03374    0 
C6       C      0.79553    0.91444    0.07683    0 
C7       C      0.79624    0.97067    0.05649    0 
C8       C      0.72147    0.4916     0.11574    0 
C3       C      0.75       0.70572    0.47446    0 
O3       O      0.75       0.66406    0.44879    0 
C5       C      0.76306    0.61353    0.46789    0 
C6       C      0.76663    0.57797    0.42042    0 
C7       C      0.7748     0.52088    0.43455    0 
C8       C      0.75573    0.9857     0.38749    0 
C1       C      0.61322    0.75       0.25       0 
C2       C      0.55388    0.75       0.25       0 
C4       C      0.52554    0.75       0.20572    0 
C9       C      0.60061    0.71518    0.0703     0 
C1       C      0.88678    0.75       0.25       0 
C2       C      0.94612    0.75       0.25       0 
C4       C      0.97446    0.75       0.29428    0 
C9       C      0.92029    0.75291    0.45761    0 
C3       C      0.52554    0.75       0.29428    0 
O3       O      0.55121    0.75       0.33594    0 
C5       C      0.53279    0.76464    0.38626    0 
C6       C      0.58052    0.76841    0.42145    0 
C7       C      0.56657    0.77912    0.47815    0 
C8       C      0.61369    0.72292    0.01315    0 
C3       C      0.97446    0.75       0.20572    0 
O3       O      0.94879    0.75       0.16406    0 
C5       C      0.95189    0.79772    0.137      0 
C6       C      0.91325    0.7981     0.09146    0 
C7       C      0.93416    0.76789    0.04444    0 
C8       C      0.89209    0.72987    0.50394    0 
Zn1      Zn     0.70652    0.70653    0.29347    0 
O2       O      0.63566    0.7188     0.2812     0 
Zn1      Zn     0.79348    0.79348    0.29347    0 
O2       O      0.86434    0.7812     0.2812     0 
Zn1      Zn     0.70652    0.79348    0.20652    0 
O2       O      0.63566    0.7812     0.2188     0 
Zn1      Zn     0.79348    0.70652    0.20652    0 
O2       O      0.86434    0.7188     0.2188     0 
O2       O      0.7188     0.7188     0.36434    0 
O2       O      0.7812     0.7188     0.13566    0 
O2       O      0.7812     0.7812     0.36434    0 
O2       O      0.7188     0.7812     0.13566    0 
O2       O      0.7188     0.63566    0.2812     0 
O2       O      0.7188     0.86434    0.2188     0 
O2       O      0.7812     0.63566    0.2188     0 
O2       O      0.7812     0.86434    0.2812     0 
Zn1      Zn     0.70652    0.70653    0.70652    0 
O1       O      0.75       0.75       0.75       0 
O2       O      0.7188     0.63566    0.7188     0 
C1       C      0.75       0.61322    0.75       0 
C2       C      0.75       0.55388    0.75       0 
C4       C      0.70572    0.52554    0.75       0 
C9       C      0.56673    0.60297    0.80146    0 
Zn1      Zn     0.79348    0.79348    0.70652    0 
O2       O      0.7812     0.86434    0.7188     0 
C1       C      0.75       0.88678    0.75       0 
C2       C      0.75       0.94612    0.75       0 
C4       C      0.79428    0.97446    0.75       0 
C9       C      0.9531     0.89823    0.84307    0 
Zn1      Zn     0.79348    0.70652    0.79348    0 
O2       O      0.7812     0.63566    0.7812     0 
C3       C      0.79428    0.52554    0.75       0 
O3       O      0.83594    0.55121    0.75       0 
C5       C      0.88769    0.53063    0.74846    0 
C6       C      0.92437    0.57681    0.74426    0 
C7       C      0.98182    0.56173    0.74127    0 
C8       C      0.50988    0.61573    0.791      0 
Zn1      Zn     0.70652    0.79348    0.79348    0 
O2       O      0.7188     0.86434    0.7812     0 
C3       C      0.70572    0.97446    0.75       0 
O3       O      0.66406    0.94879    0.75       0 
C5       C      0.64036    0.94929    0.79989    0 
C6       C      0.59364    0.91257    0.8001     0 
C7       C      0.54788    0.93428    0.76877    0 
C8       C      0.00687    0.88018    0.82631    0 
O2       O      0.7188     0.7188     0.63566    0 
C1       C      0.75       0.75       0.61322    0 
C2       C      0.75       0.75       0.55388    0 
C4       C      0.75       0.70572    0.52554    0 
C9       C      0.81057    0.5646     0.60245    0 
O2       O      0.7188     0.7812     0.86434    0 
C1       C      0.75       0.75       0.88678    0 
C2       C      0.75       0.75       0.94612    0 
C4       C      0.75       0.79428    0.97446    0 
C9       C      0.74922    0.95885    0.91424    0 
O2       O      0.7812     0.7812     0.63566    0 
C3       C      0.75       0.79428    0.52554    0 
O3       O      0.75       0.83594    0.55121    0 
C5       C      0.73686    0.88665    0.53277    0 
C6       C      0.72948    0.92135    0.58045    0 
C7       C      0.71974    0.97809    0.566      0 
C8       C      0.8001     0.50787    0.61582    0 
O2       O      0.7812     0.7188     0.86434    0 
C3       C      0.75       0.70572    0.97446    0 
O3       O      0.75       0.66406    0.94879    0 
C5       C      0.72693    0.61805    0.9682     0 
C6       C      0.72131    0.57992    0.92279    0 
C7       C      0.71635    0.52355    0.94129    0 
C8       C      0.75177    0.01237    0.88967    0 
O2       O      0.63566    0.7188     0.7188     0 
C1       C      0.61322    0.75       0.75       0 
C2       C      0.55388    0.75       0.75       0 
C4       C      0.52554    0.75       0.70572    0 
C9       C      0.60335    0.79498    0.56785    0 
O2       O      0.86434    0.7188     0.7812     0 
C1       C      0.88678    0.75       0.75       0 
C2       C      0.94612    0.75       0.75       0 
C4       C      0.97446    0.75       0.79428    0 
C9       C      0.91833    0.74007    0.95167    0 
O2       O      0.63566    0.7812     0.7812     0 
C3       C      0.52554    0.75       0.79428    0 
O3       O      0.55121    0.75       0.83594    0 
C5       C      0.53224    0.7411     0.88733    0 
C6       C      0.5797     0.73622    0.92266    0 
C7       C      0.565      0.72985    0.97984    0 
C8       C      0.61587    0.78583    0.51074    0 
O2       O      0.86434    0.7812     0.7188     0 
C3       C      0.97446    0.75       0.70572    0 
O3       O      0.94879    0.75       0.66406    0 
C5       C      0.94175    0.69916    0.64409    0 
C6       C      0.90413    0.70014    0.59776    0 
C7       C      0.9292     0.72597    0.55024    0 
C8       C      0.89606    0.76857    0.99862    0 
H1       H      0.4575     0.75       0.82702    0 
H1       H      0.54398    0.75       0.67378    0 
H1       H      0.4575     0.75       0.32702    0 
H1       H      0.54398    0.75       0.17378    0 
H1       H      0.67378    0.54398    0.75       0 
H1       H      0.82702    0.4575     0.75       0 
H1       H      0.54398    0.25       0.82622    0 
H1       H      0.4575     0.25       0.67298    0 
H1       H      0.32702    0.4575     0.75       0 
H1       H      0.17378    0.54398    0.75       0 
H1       H      0.54398    0.25       0.32622    0 
H1       H      0.4575     0.25       0.17298    0 
H1       H      0.25       0.17298    0.4575     0 
H1       H      0.25       0.32622    0.54398    0 
H1       H      0.25       0.67298    0.4575     0 
H1       H      0.25       0.82622    0.54398    0 
H1       H      0.17298    0.4575     0.25       0 
H1       H      0.32622    0.54398    0.25       0 
H1       H      0.67298    0.4575     0.25       0 
H1       H      0.83026    0.54709    0.24979    0 
H1       H      0.75       0.82702    0.4575     0 
H1       H      0.75       0.67378    0.54398    0 
H1       H      0.75       0.32702    0.4575     0 
H1       H      0.75       0.17378    0.54398    0 
H2       H      0.1994     0.3861     0.48824    0 
H2       H      0.26864    0.40078    0.49395    0 
H3       H      0.26981    0.41815    0.3969     0 
H3       H      0.2007     0.40825    0.39556    0 
H4       H      0.19067    0.48289    0.4591     0 
H4       H      0.26021    0.49347    0.45502    0 
H5       H      0.25148    0.5061     0.35833    0 
H5       H      0.18215    0.49804    0.36418    0 
H6       H      0.18005    0.57556    0.42479    0 
H6       H      0.249      0.58426    0.41316    0 
H6       H      0.20344    0.59071    0.36056    0 
H6       H      0.1935     0.41122    0.63959    0 
H6       H      0.16494    0.4291     0.57816    0 
H6       H      0.23403    0.41645    0.58287    0 
H5       H      0.17646    0.50539    0.63844    0 
H5       H      0.24533    0.49298    0.63992    0 
H4       H      0.24902    0.50702    0.54339    0 
H4       H      0.18005    0.52127    0.54324    0 
H3       H      0.2655     0.58072    0.60246    0 
H3       H      0.19716    0.59465    0.60649    0 
H2       H      0.19355    0.61814    0.51449    0 
H2       H      0.26105    0.59802    0.50542    0 
H2       H      0.23178    0.90089    0.4941     0 
H2       H      0.30081    0.88568    0.48866    0 
H3       H      0.29842    0.90697    0.39465    0 
H3       H      0.23001    0.92112    0.39898    0 
H2       H      0.76918    0.90202    0.50886    0 
H2       H      0.70006    0.88578    0.5103     0 
H3       H      0.69612    0.90635    0.60341    0 
H3       H      0.76481    0.91896    0.60519    0 
H6       H      0.81762    0.58689    0.63868    0 
H6       H      0.84529    0.56796    0.57714    0 
H6       H      0.77648    0.58167    0.58238    0 
H5       H      0.76471    0.50589    0.64041    0 
H5       H      0.83344    0.49239    0.63837    0 
H4       H      0.82842    0.47504    0.54345    0 
H4       H      0.7601     0.49176    0.54371    0 
H3       H      0.74095    0.41923    0.60339    0 
H3       H      0.80868    0.40242    0.60708    0 
H2       H      0.81098    0.37735    0.51599    0 
H2       H      0.74556    0.40268    0.50551    0 
H2       H      0.09935    0.4933     0.77011    0 
H2       H      0.11249    0.4872     0.70039    0 
H3       H      0.09238    0.39375    0.70426    0 
H3       H      0.08088    0.3979     0.77304    0 
H2       H      0.38253    0.51405    0.80559    0 
H2       H      0.40196    0.50563    0.73781    0 
H3       H      0.41984    0.60226    0.73377    0 
H3       H      0.40533    0.60657    0.80197    0 
H4       H      0.47848    0.54301    0.81977    0 
H4       H      0.49354    0.54365    0.75098    0 
H5       H      0.50753    0.64011    0.75548    0 
H5       H      0.49432    0.63832    0.82424    0 
H6       H      0.58867    0.63944    0.80832    0 
H6       H      0.5704     0.57786    0.83632    0 
H6       H      0.5839     0.58295    0.76742    0 
H2       H      0.15935    0.95741    0.83142    0 
H2       H      0.11229    0.99163    0.79339    0 
H3       H      0.09199    0.88972    0.76317    0 
H3       H      0.11446    0.87964    0.82835    0 
H6       H      0.46619    0.92851    0.69857    0 
H6       H      0.42435    0.88832    0.73774    0 
H6       H      0.44119    0.95262    0.75972    0 
H5       H      0.49131    0.88435    0.80709    0 
H5       H      0.51571    0.85963    0.74629    0 
H4       H      0.56071    0.94307    0.72849    0 
H4       H      0.53432    0.97083    0.78723    0 
H3       H      0.60564    0.87461    0.78383    0 
H3       H      0.58106    0.90611    0.84089    0 
H2       H      0.66776    0.93544    0.83024    0 
H2       H      0.62699    0.98899    0.81075    0 
H6       H      0.53477    0.92821    0.29967    0 
H6       H      0.5754     0.88567    0.2616     0 
H6       H      0.56005    0.94959    0.23763    0 
H5       H      0.4836     0.85884    0.25405    0 
H5       H      0.50784    0.88165    0.1924     0 
H4       H      0.46701    0.96955    0.21097    0 
H4       H      0.44053    0.94344    0.27029    0 
H3       H      0.39367    0.87475    0.21675    0 
H3       H      0.418      0.90539    0.15888    0 
H2       H      0.33262    0.9379     0.16902    0 
H2       H      0.37449    0.98966    0.19082    0 
H2       H      0.8318     0.93329    0.1719     0 
H2       H      0.87064    0.98966    0.18831    0 
H3       H      0.89591    0.87707    0.21649    0 
H3       H      0.91984    0.91159    0.15942    0 
H3       H      0.76521    0.91073    0.10738    0 
H3       H      0.83395    0.90503    0.0938     0 
H2       H      0.82305    0.8584     0.02079    0 
H2       H      0.76752    0.89572    0.00071    0 
H6       H      0.41086    0.63936    0.19292    0 
H6       H      0.42813    0.57644    0.16739    0 
H6       H      0.4159     0.58472    0.23622    0 
H5       H      0.50486    0.63692    0.17546    0 
H5       H      0.49296    0.64145    0.24436    0 
H4       H      0.50585    0.54484    0.25232    0 
H4       H      0.52041    0.54182    0.18348    0 
H3       H      0.58029    0.60318    0.26714    0 
H3       H      0.59412    0.6054     0.19869    0 
H2       H      0.61515    0.5121     0.19778    0 
H2       H      0.59818    0.50669    0.2664     0 
H2       H      0.61394    0.48815    0.80075    0 
H2       H      0.59923    0.49408    0.73157    0 
H3       H      0.58163    0.39714    0.73007    0 
H3       H      0.59191    0.39543    0.79911    0 
H4       H      0.50643    0.45535    0.74039    0 
H4       H      0.51744    0.45899    0.80989    0 
H5       H      0.50261    0.36381    0.81756    0 
H5       H      0.4933     0.35887    0.74834    0 
H6       H      0.42534    0.42459    0.82193    0 
H6       H      0.41532    0.41384    0.75302    0 
H6       H      0.40957    0.36069    0.79801    0 
H2       H      0.38373    0.48749    0.19647    0 
H2       H      0.40164    0.49406    0.26479    0 
H3       H      0.41887    0.3968     0.26618    0 
H3       H      0.4064     0.39503    0.19749    0 
H4       H      0.48045    0.45831    0.18397    0 
H4       H      0.49332    0.45571    0.25317    0 
H5       H      0.50639    0.35889    0.24594    0 
H5       H      0.49671    0.36339    0.17669    0 
H6       H      0.57352    0.42442    0.17148    0 
H6       H      0.58362    0.41532    0.24056    0 
H6       H      0.59006    0.36122    0.19678    0 
H3       H      0.09148    0.60411    0.29883    0 
H3       H      0.08088    0.6027     0.22977    0 
H2       H      0.09932    0.5066     0.22991    0 
H2       H      0.11326    0.51111    0.2994     0 
H2       H      0.12664    0.01158    0.31077    0 
H2       H      0.16861    0.06416    0.33058    0 
H3       H      0.08252    0.09578    0.34098    0 
H3       H      0.1077     0.12597    0.28339    0 
H2       H      0.63381    0.02021    0.31914    0 
H2       H      0.67518    0.07663    0.32626    0 
H3       H      0.58915    0.10516    0.3419     0 
H3       H      0.60856    0.13064    0.28005    0 
H4       H      0.54006    0.03358    0.29817    0 
H4       H      0.5589     0.0587     0.23543    0 
H5       H      0.51341    0.14198    0.25422    0 
H5       H      0.49631    0.11933    0.31823    0 
H6       H      0.42256    0.11047    0.2571     0 
H6       H      0.46114    0.07033    0.21473    0 
H6       H      0.44392    0.04752    0.27899    0 
H2       H      0.90126    0.49378    0.23266    0 
H2       H      0.88535    0.48786    0.30169    0 
H3       H      0.90682    0.39468    0.29938    0 
H3       H      0.92003    0.39806    0.23087    0 
H2       H      0.51318    0.8031     0.38459    0 
H2       H      0.50596    0.73449    0.40151    0 
H2       H      0.48729    0.19519    0.38252    0 
H2       H      0.49415    0.26305    0.40192    0 
H3       H      0.60255    0.73132    0.41918    0 
H3       H      0.60604    0.79995    0.40665    0 
H4       H      0.5429     0.8151     0.48049    0 
H4       H      0.54394    0.74588    0.49361    0 
H5       H      0.64036    0.75047    0.50744    0 
H5       H      0.63823    0.81948    0.49581    0 
H6       H      0.57764    0.82928    0.57237    0 
H6       H      0.58412    0.76022    0.58448    0 
H6       H      0.63983    0.80214    0.58965    0 
H2       H      0.51358    0.19363    0.61855    0 
H2       H      0.50613    0.26094    0.59753    0 
H3       H      0.60371    0.26272    0.58096    0 
H3       H      0.60566    0.19439    0.59541    0 
H5       H      0.63722    0.17152    0.50515    0 
H5       H      0.64123    0.24059    0.49392    0 
H6       H      0.58447    0.23313    0.41708    0 
H6       H      0.63887    0.18965    0.41135    0 
H6       H      0.57589    0.16425    0.42867    0 
H4       H      0.54447    0.24745    0.50716    0 
H4       H      0.5423     0.17863    0.52177    0 
H6       H      0.41515    0.23606    0.58344    0 
H6       H      0.36149    0.19167    0.58908    0 
H6       H      0.42499    0.16725    0.57227    0 
H5       H      0.35888    0.24223    0.50623    0 
H5       H      0.36385    0.17317    0.49547    0 
H4       H      0.45879    0.18144    0.47928    0 
H4       H      0.45561    0.25037    0.49327    0 
H3       H      0.39676    0.26435    0.41913    0 
H3       H      0.39504    0.19586    0.40551    0 
H6       H      0.42373    0.82307    0.42578    0 
H6       H      0.41449    0.75404    0.41516    0 
H6       H      0.3604     0.79797    0.40966    0 
H5       H      0.36325    0.81699    0.50295    0 
H5       H      0.35908    0.74781    0.49293    0 
H4       H      0.45555    0.74071    0.50609    0 
H4       H      0.45853    0.81014    0.51778    0 
H3       H      0.39748    0.72905    0.58121    0 
H3       H      0.39504    0.79798    0.59207    0 
H2       H      0.48826    0.80015    0.61355    0 
H2       H      0.49393    0.7308     0.59935    0 
H2       H      0.50832    0.77462    0.89999    0 
H2       H      0.50965    0.70439    0.88902    0 
H3       H      0.6029     0.7021     0.90985    0 
H3       H      0.60422    0.77149    0.91819    0 
H2       H      0.49173    0.23243    0.90211    0 
H2       H      0.48947    0.30122    0.88469    0 
H3       H      0.3969     0.30527    0.90597    0 
H3       H      0.39468    0.2365     0.91802    0 
H2       H      0.97945    0.68271    0.63077    0 
H2       H      0.92441    0.67345    0.67388    0 
H3       H      0.89357    0.65946    0.58768    0 
H3       H      0.86785    0.72074    0.6089     0 
H4       H      0.9637     0.70282    0.53857    0 
H4       H      0.94234    0.76562    0.56096    0 
H5       H      0.85896    0.7557     0.51348    0 
H5       H      0.87725    0.69088    0.49288    0 
H2       H      0.935      0.16951    0.33123    0 
H2       H      0.98815    0.18851    0.3726     0 
H3       H      0.87404    0.21666    0.39324    0 
H3       H      0.90419    0.15849    0.41709    0 
H4       H      0.96763    0.20839    0.46729    0 
H4       H      0.94533    0.26888    0.43982    0 
H5       H      0.85875    0.25696    0.48049    0 
H5       H      0.87799    0.19465    0.50608    0 
H6       H      0.92808    0.30008    0.53361    0 
H6       H      0.88269    0.26404    0.57302    0 
H6       H      0.94605    0.23749    0.56019    0 
H6       H      0.05092    0.75758    0.56022    0 
H6       H      0.07216    0.69633    0.53286    0 
H6       H      0.11512    0.73365    0.57387    0 
H5       H      0.14061    0.74407    0.48235    0 
H5       H      0.11773    0.80472    0.50847    0 
H4       H      0.02973    0.78729    0.46713    0 
H4       H      0.05585    0.72841    0.439      0 
H3       H      0.12546    0.78428    0.395      0 
H3       H      0.09299    0.84088    0.4195     0 
H2       H      0.06545    0.83031    0.33214    0 
H2       H      0.01148    0.81163    0.37234    0 
H6       H      0.07019    0.29324    0.46287    0 
H6       H      0.11878    0.25861    0.42605    0 
H6       H      0.05691    0.22866    0.43836    0 
H5       H      0.12517    0.19189    0.49591    0 
H5       H      0.14112    0.25608    0.51896    0 
H4       H      0.05382    0.26596    0.55803    0 
H4       H      0.03401    0.20378    0.53239    0 
H3       H      0.12601    0.21798    0.60754    0 
H3       H      0.09829    0.15796    0.58531    0 
H2       H      0.06416    0.16929    0.6693     0 
H2       H      0.01205    0.18876    0.62691    0 
H2       H      0.01104    0.68865    0.87226    0 
H2       H      0.06497    0.66963    0.83141    0 
H3       H      0.09281    0.65801    0.91859    0 
H3       H      0.12559    0.71443    0.89426    0 
H3       H      0.1139     0.22682    0.09732    0 
H3       H      0.09231    0.16133    0.08156    0 
H2       H      0.05581    0.16865    0.16103    0 
H2       H      0.00399    0.1956     0.12337    0 
H2       H      0.492      0.79339    0.11021    0 
H2       H      0.49185    0.72281    0.10133    0 
H3       H      0.39446    0.72963    0.08619    0 
H3       H      0.40072    0.79902    0.08586    0 
H2       H      0.50753    0.20854    0.10889    0 
H2       H      0.50802    0.27929    0.10207    0 
H3       H      0.60486    0.27268    0.08599    0 
H3       H      0.59895    0.2033     0.08448    0 
H3       H      0.87547    0.78155    0.10424    0 
H3       H      0.90628    0.839      0.07965    0 
H2       H      0.94182    0.82962    0.16317    0 
H2       H      0.99174    0.80489    0.12186    0 
H2       H      0.98772    0.31139    0.8729     0 
H2       H      0.937      0.33081    0.8286     0 
H3       H      0.90052    0.34465    0.91082    0 
H3       H      0.87303    0.28424    0.88936    0 
H3       H      0.91363    0.59775    0.70836    0 
H3       H      0.91797    0.60308    0.77794    0 
H2       H      0.89612    0.5084     0.78449    0 
H2       H      0.89286    0.50587    0.71355    0 
H2       H      0.85481    0.03178    0.82728    0 
H2       H      0.89626    0.00588    0.77709    0 
H3       H      0.91972    0.09985    0.75418    0 
H3       H      0.88664    0.11948    0.81239    0 
H3       H      0.41096    0.10479    0.65798    0 
H3       H      0.39143    0.13056    0.71982    0 
H2       H      0.36577    0.02025    0.68081    0 
H2       H      0.32471    0.07674    0.67358    0 
H4       H      0.44098    0.05846    0.76456    0 
H4       H      0.45997    0.03336    0.70185    0 
H5       H      0.50332    0.11944    0.68197    0 
H5       H      0.48649    0.14161    0.74619    0 
H6       H      0.57725    0.11066    0.74316    0 
H6       H      0.53898    0.06941    0.7848     0 
H6       H      0.55646    0.04796    0.72008    0 
H1       H      0.67298    0.9575     0.25       0 
H1       H      0.82702    0.9575     0.75       0 
H1       H      0.32702    0.9575     0.75       0 
H1       H      0.17298    0.9575     0.25       0 
H1       H      0.17298    0.0425     0.75       0 
H1       H      0.32702    0.0425     0.25       0 
H1       H      0.67298    0.0425     0.75       0 
H1       H      0.82702    0.0425     0.25       0 
H1       H      0.0425     0.25       0.82702    0 
H1       H      0.0425     0.75       0.67298    0 
H1       H      0.25       0.67298    0.9575     0 
H1       H      0.0425     0.25       0.32702    0 
H1       H      0.0425     0.75       0.17298    0 
H1       H      0.25       0.32702    0.0425     0 
H1       H      0.25       0.82702    0.0425     0 
H1       H      0.9575     0.25       0.17298    0 
H1       H      0.75       0.17298    0.0425     0 
H1       H      0.9575     0.75       0.32702    0 
H1       H      0.9575     0.75       0.82702    0 
H1       H      0.9575     0.25       0.67298    0 
H1       H      0.75       0.82702    0.9575     0 
H1       H      0.75       0.32702    0.9575     0 
H1       H      0.25       0.17298    0.9575     0 
H1       H      0.75       0.67298    0.0425     0 
H6       H      0.73763    0.57349    0.12446    0 
H6       H      0.7745     0.54209    0.07383    0 
H6       H      0.70608    0.55647    0.06441    0 
H5       H      0.68315    0.49518    0.13515    0 
H5       H      0.75106    0.48076    0.14509    0 
H4       H      0.75819    0.443      0.05749    0 
H4       H      0.69232    0.46151    0.04245    0 
H3       H      0.65831    0.40484    0.1119     0 
H3       H      0.72287    0.3874     0.1319     0 
H2       H      0.6808     0.36699    0.02174    0 
H2       H      0.67364    0.32296    0.076      0 
H6       H      0.29815    0.5356     0.92838    0 
H6       H      0.25848    0.57585    0.88704    0 
H6       H      0.23625    0.55985    0.95141    0 
H5       H      0.25216    0.48401    0.85992    0 
H5       H      0.1906     0.50763    0.88349    0 
H4       H      0.20987    0.46598    0.97075    0 
H4       H      0.2695     0.44037    0.94427    0 
H3       H      0.21586    0.3943     0.87476    0 
H3       H      0.15807    0.41772    0.9058     0 
H2       H      0.16958    0.33122    0.93529    0 
H2       H      0.18869    0.3721     0.98885    0 
H2       H      0.17086    0.83059    0.93029    0 
H2       H      0.18606    0.86851    0.98775    0 
H3       H      0.21252    0.89687    0.8752     0 
H3       H      0.16019    0.92307    0.91434    0 
H2       H      0.80129    0.61436    0.488      0 
H2       H      0.73222    0.59932    0.49456    0 
H3       H      0.73022    0.58159    0.39748    0 
H3       H      0.7993     0.59152    0.39563    0 
H4       H      0.74024    0.50655    0.45602    0 
H4       H      0.80978    0.51716    0.45948    0 
H5       H      0.81771    0.50168    0.36467    0 
H5       H      0.74838    0.49378    0.35905    0 
H6       H      0.81952    0.42421    0.42574    0 
H6       H      0.75068    0.41554    0.41335    0 
H6       H      0.79676    0.40915    0.36124    0 
H5       H      0.25457    0.51258    0.14055    0 
H5       H      0.31985    0.49738    0.12003    0 
H6       H      0.26204    0.42174    0.10876    0 
H6       H      0.21887    0.45899    0.06826    0 
H6       H      0.28413    0.44446    0.04639    0 
H4       H      0.30105    0.54052    0.0335     0 
H4       H      0.23742    0.55798    0.05703    0 
H3       H      0.34194    0.59022    0.10629    0 
H3       H      0.27901    0.60838    0.13025    0 
H2       H      0.3195     0.63445    0.02051    0 
H2       H      0.32613    0.67571    0.07709    0 
H2       H      0.17717    0.17614    0.08049    0 
H2       H      0.1795     0.13463    0.0234     0 
H3       H      0.22265    0.10961    0.13256    0 
H3       H      0.15982    0.0905     0.10946    0 
H4       H      0.20088    0.04097    0.03668    0 


