data_IRMOF-12

_audit_creation_method RASPA-1.0
_audit_creation_date 2011-3-7
_audit_author_name 'Tina Duren/Houston Frost/Randall Snurr/David Dubbeldam'

_citation_author_name        'M. Eddaoudi, J. Kim, N. Rosi, D. Vodak, J. Wachter, M. Oâ€™Keeffe, and O.M. Yaghi',
_citation_title              'Systematic design of pore size and functionality in isoreticular MOFs and their application in methane storage'
_citation_journal_abbrev     'Science'
_citation_journal_volume     295
_citation_journal_number     5554
_citation_page_first         469
_citation_page_last          472
_citation_year               2002

_cell_length_a    34.2807
_cell_length_b    34.2807
_cell_length_c    34.2807
_cell_angle_alpha 90
_cell_angle_beta  90
_cell_angle_gamma 90
_cell_volume      40285.5

_symmetry_cell_setting          triclinic
_symmetry_space_group_name_Hall 'P 1'
_symmetry_space_group_name_H-M  'P 1'
_symmetry_Int_Tables_number     1

_symmetry_equiv_pos_as_xyz 'x,y,z'

loop_
_atom_site_label
_atom_site_type_symbol
_atom_site_fract_x
_atom_site_fract_y
_atom_site_fract_z
_atom_site_charge
Zn1      Zn     0.217705   0.217451   0.217528   0 
O1       O      0.250425   0.250172   0.250248   0 
O1       O      0.228355   0.228101   0.162668   0 
C1       C      0.250425   0.250172   0.146818   0 
C2       C      0.250425   0.250172   0.103578   0 
C3       C      0.227265   0.227011   0.0804382  0 
H1       H      0.209985   0.209731   0.0935082  0 
C4       C      0.226485   0.226232   0.0395683  0 
C5       C      0.250425   0.250172   0.0205882  0 
C6       C      0.190735   0.211821   0.0187081  0 
Zn1      Zn     0.783145   0.782891   0.217528   0 
O1       O      0.750425   0.750172   0.250248   0 
O1       O      0.772495   0.772241   0.162668   0 
C1       C      0.750425   0.750172   0.146818   0 
C2       C      0.750425   0.750172   0.103578   0 
C3       C      0.773585   0.773332   0.0804382  0 
H1       H      0.790865   0.790612   0.0935082  0 
C4       C      0.774365   0.774111   0.0395683  0 
C5       C      0.750425   0.750172   0.0205882  0 
Zn1      Zn     0.783145   0.217451   0.782968   0 
O1       O      0.750425   0.250172   0.750248   0 
O1       O      0.772495   0.228101   0.837828   0 
C1       C      0.750425   0.250172   0.853678   0 
C2       C      0.750425   0.250172   0.896918   0 
C3       C      0.773585   0.227011   0.920058   0 
H1       H      0.790865   0.209731   0.906988   0 
C4       C      0.774365   0.226232   0.960928   0 
C5       C      0.750425   0.250172   0.979908   0 
C6       C      0.810115   0.211821   0.981788   0 
Zn1      Zn     0.217705   0.782891   0.782968   0 
O1       O      0.250425   0.750172   0.750248   0 
O1       O      0.228355   0.772241   0.837828   0 
C1       C      0.250425   0.750172   0.853678   0 
C2       C      0.250425   0.750172   0.896918   0 
C3       C      0.227265   0.773332   0.920058   0 
H1       H      0.209985   0.790612   0.906988   0 
C4       C      0.226485   0.774111   0.960928   0 
C5       C      0.250425   0.750172   0.979908   0 
O1       O      0.162845   0.228101   0.228178   0 
C1       C      0.146995   0.250172   0.250248   0 
C2       C      0.103755   0.250172   0.250248   0 
C3       C      0.0806153  0.227011   0.227088   0 
H1       H      0.0936854  0.209731   0.209808   0 
C4       C      0.0397454  0.226232   0.226308   0 
C5       C      0.0207653  0.250172   0.250248   0 
C6       C      0.0188853  0.190481   0.211898   0 
O1       O      0.162845   0.772241   0.772318   0 
C1       C      0.146995   0.750172   0.750248   0 
C2       C      0.103755   0.750172   0.750248   0 
C3       C      0.0806153  0.773332   0.773408   0 
H1       H      0.0936854  0.790612   0.790688   0 
C4       C      0.0397454  0.774111   0.774188   0 
C5       C      0.0207653  0.750172   0.750248   0 
O1       O      0.838005   0.772241   0.228178   0 
C1       C      0.853855   0.750172   0.250248   0 
C2       C      0.897095   0.750172   0.250248   0 
C3       C      0.920235   0.773332   0.227088   0 
H1       H      0.907165   0.790612   0.209808   0 
C4       C      0.961105   0.774111   0.226308   0 
C5       C      0.980085   0.750172   0.250248   0 
O1       O      0.838005   0.228101   0.772318   0 
C1       C      0.853855   0.250172   0.750248   0 
C2       C      0.897095   0.250172   0.750248   0 
C3       C      0.920235   0.227011   0.773408   0 
H1       H      0.907165   0.209731   0.790688   0 
C4       C      0.961105   0.226232   0.774188   0 
C5       C      0.980085   0.250172   0.750248   0 
C6       C      0.981965   0.190481   0.788598   0 
O1       O      0.228355   0.162591   0.228178   0 
C1       C      0.250425   0.146741   0.250248   0 
C2       C      0.250425   0.103501   0.250248   0 
C3       C      0.227265   0.0803615  0.227088   0 
H1       H      0.209985   0.0934315  0.209808   0 
C4       C      0.226485   0.0394915  0.226308   0 
C5       C      0.250425   0.0205115  0.250248   0 
O1       O      0.772495   0.162591   0.772318   0 
C1       C      0.750425   0.146741   0.750248   0 
C2       C      0.750425   0.103501   0.750248   0 
C3       C      0.773585   0.0803615  0.773408   0 
H1       H      0.790865   0.0934315  0.790688   0 
C4       C      0.774365   0.0394915  0.774188   0 
C5       C      0.750425   0.0205115  0.750248   0 
C6       C      0.788775   0.0186314  0.809938   0 
O1       O      0.228355   0.837751   0.772318   0 
C1       C      0.250425   0.853602   0.750248   0 
C2       C      0.250425   0.896842   0.750248   0 
C3       C      0.227265   0.919981   0.773408   0 
H1       H      0.209985   0.906911   0.790688   0 
C4       C      0.226485   0.960851   0.774188   0 
C5       C      0.250425   0.979831   0.750248   0 
C6       C      0.212075   0.981711   0.809938   0 
O1       O      0.772495   0.837751   0.228178   0 
C1       C      0.750425   0.853602   0.250248   0 
C2       C      0.750425   0.896842   0.250248   0 
C3       C      0.773585   0.919981   0.227088   0 
H1       H      0.790865   0.906911   0.209808   0 
C4       C      0.774365   0.960851   0.226308   0 
C5       C      0.750425   0.979831   0.250248   0 
Zn1      Zn     0.217705   0.217451   0.782968   0 
O1       O      0.250425   0.250172   0.750248   0 
O1       O      0.228355   0.228101   0.837828   0 
C1       C      0.250425   0.250172   0.853678   0 
C2       C      0.250425   0.250172   0.896918   0 
C3       C      0.227265   0.227011   0.920058   0 
H1       H      0.209985   0.209731   0.906988   0 
C4       C      0.226485   0.226232   0.960928   0 
C5       C      0.250425   0.250172   0.979908   0 
C6       C      0.212075   0.190481   0.981788   0 
Zn1      Zn     0.783145   0.782891   0.782968   0 
O1       O      0.750425   0.750172   0.750248   0 
O1       O      0.772495   0.772241   0.837828   0 
C1       C      0.750425   0.750172   0.853678   0 
C2       C      0.750425   0.750172   0.896918   0 
C3       C      0.773585   0.773332   0.920058   0 
H1       H      0.790865   0.790612   0.906988   0 
C4       C      0.774365   0.774111   0.960928   0 
C5       C      0.750425   0.750172   0.979908   0 
Zn1      Zn     0.217705   0.782891   0.217528   0 
O1       O      0.250425   0.750172   0.250248   0 
O1       O      0.228355   0.772241   0.162668   0 
C1       C      0.250425   0.750172   0.146818   0 
C2       C      0.250425   0.750172   0.103578   0 
C3       C      0.227265   0.773332   0.0804382  0 
H1       H      0.209985   0.790612   0.0935082  0 
C4       C      0.226485   0.774111   0.0395683  0 
C5       C      0.250425   0.750172   0.0205882  0 
Zn1      Zn     0.783145   0.217451   0.217528   0 
O1       O      0.750425   0.250172   0.250248   0 
O1       O      0.772495   0.228101   0.162668   0 
C1       C      0.750425   0.250172   0.146818   0 
C2       C      0.750425   0.250172   0.103578   0 
C3       C      0.773585   0.227011   0.0804382  0 
H1       H      0.790865   0.209731   0.0935082  0 
C4       C      0.774365   0.226232   0.0395683  0 
C5       C      0.750425   0.250172   0.0205882  0 
C6       C      0.788775   0.190481   0.0187081  0 
O1       O      0.228355   0.162591   0.772318   0 
C1       C      0.250425   0.146741   0.750248   0 
C2       C      0.250425   0.103501   0.750248   0 
C3       C      0.227265   0.0803615  0.773408   0 
H1       H      0.209985   0.0934315  0.790688   0 
C4       C      0.226485   0.0394915  0.774188   0 
C5       C      0.250425   0.0205115  0.750248   0 
C6       C      0.190735   0.0186314  0.788598   0 
O1       O      0.772495   0.162591   0.228178   0 
C1       C      0.750425   0.146741   0.250248   0 
C2       C      0.750425   0.103501   0.250248   0 
C3       C      0.773585   0.0803615  0.227088   0 
H1       H      0.790865   0.0934315  0.209808   0 
C4       C      0.774365   0.0394915  0.226308   0 
C5       C      0.750425   0.0205115  0.250248   0 
O1       O      0.772495   0.837751   0.772318   0 
C1       C      0.750425   0.853602   0.750248   0 
C2       C      0.750425   0.896842   0.750248   0 
C3       C      0.773585   0.919981   0.773408   0 
H1       H      0.790865   0.906911   0.790688   0 
C4       C      0.774365   0.960851   0.774188   0 
C5       C      0.750425   0.979831   0.750248   0 
C6       C      0.810115   0.981711   0.788598   0 
O1       O      0.228355   0.837751   0.228178   0 
C1       C      0.250425   0.853602   0.250248   0 
C2       C      0.250425   0.896842   0.250248   0 
C3       C      0.227265   0.919981   0.227088   0 
H1       H      0.209985   0.906911   0.209808   0 
C4       C      0.226485   0.960851   0.226308   0 
C5       C      0.250425   0.979831   0.250248   0 
O1       O      0.162845   0.228101   0.772318   0 
C1       C      0.146995   0.250172   0.750248   0 
C2       C      0.103755   0.250172   0.750248   0 
C3       C      0.0806153  0.227011   0.773408   0 
H1       H      0.0936854  0.209731   0.790688   0 
C4       C      0.0397454  0.226232   0.774188   0 
C5       C      0.0207653  0.250172   0.750248   0 
C6       C      0.0188853  0.211821   0.809938   0 
O1       O      0.162845   0.772241   0.228178   0 
C1       C      0.146995   0.750172   0.250248   0 
C2       C      0.103755   0.750172   0.250248   0 
C3       C      0.0806153  0.773332   0.227088   0 
H1       H      0.0936854  0.790612   0.209808   0 
C4       C      0.0397454  0.774111   0.226308   0 
C5       C      0.0207653  0.750172   0.250248   0 
O1       O      0.838005   0.228101   0.228178   0 
C1       C      0.853855   0.250172   0.250248   0 
C2       C      0.897095   0.250172   0.250248   0 
C3       C      0.920235   0.227011   0.227088   0 
H1       H      0.907165   0.209731   0.209808   0 
C4       C      0.961105   0.226232   0.226308   0 
C5       C      0.980085   0.250172   0.250248   0 
C6       C      0.981965   0.211821   0.190558   0 
O1       O      0.838005   0.772241   0.772318   0 
C1       C      0.853855   0.750172   0.750248   0 
C2       C      0.897095   0.750172   0.750248   0 
C3       C      0.920235   0.773332   0.773408   0 
H1       H      0.907165   0.790612   0.790688   0 
C4       C      0.961105   0.774111   0.774188   0 
C5       C      0.980085   0.750172   0.750248   0 
C6       C      0.190735   0.788521   0.0187081  0 
C6       C      0.981965   0.809861   0.788598   0 
C6       C      0.0188853  0.809861   0.211898   0 
C6       C      0.212075   0.981711   0.190558   0 
C6       C      0.788775   0.0186314  0.190558   0 
C6       C      0.788775   0.809861   0.0187081  0 
C6       C      0.212075   0.809861   0.981788   0 
C6       C      0.810115   0.981711   0.211898   0 
C6       C      0.190735   0.0186314  0.211898   0 
C6       C      0.981965   0.788521   0.190558   0 
C6       C      0.0188853  0.788521   0.809938   0 
Zn1      Zn     0.217705   0.717451   0.717528   0 
O1       O      0.228355   0.728101   0.662668   0 
C1       C      0.250425   0.750172   0.646818   0 
C2       C      0.250425   0.750172   0.603578   0 
C3       C      0.227265   0.727011   0.580438   0 
H1       H      0.209985   0.709731   0.593508   0 
C4       C      0.226485   0.726232   0.539568   0 
C5       C      0.250425   0.750172   0.520588   0 
Zn1      Zn     0.783145   0.282891   0.717528   0 
O1       O      0.772495   0.272241   0.662668   0 
C1       C      0.750425   0.250172   0.646818   0 
C2       C      0.750425   0.250172   0.603578   0 
C3       C      0.773585   0.273332   0.580438   0 
H1       H      0.790865   0.290612   0.593508   0 
C4       C      0.774365   0.274111   0.539568   0 
C5       C      0.750425   0.250172   0.520588   0 
Zn1      Zn     0.783145   0.717451   0.282968   0 
O1       O      0.772495   0.728101   0.337828   0 
C1       C      0.750425   0.750172   0.353678   0 
C2       C      0.750425   0.750172   0.396918   0 
C3       C      0.773585   0.727011   0.420058   0 
H1       H      0.790865   0.709731   0.406988   0 
C4       C      0.774365   0.726232   0.460928   0 
C5       C      0.750425   0.750172   0.479908   0 
C6       C      0.810115   0.711821   0.481788   0 
Zn1      Zn     0.217705   0.282891   0.282968   0 
O1       O      0.228355   0.272241   0.337828   0 
C1       C      0.250425   0.250172   0.353678   0 
C2       C      0.250425   0.250172   0.396918   0 
C3       C      0.227265   0.273332   0.420058   0 
H1       H      0.209985   0.290612   0.406988   0 
C4       C      0.226485   0.274111   0.460928   0 
C5       C      0.250425   0.250172   0.479908   0 
C6       C      0.190735   0.288521   0.481788   0 
O1       O      0.162845   0.728101   0.728178   0 
C3       C      0.0806153  0.727011   0.727088   0 
H1       H      0.0936854  0.709731   0.709808   0 
C4       C      0.0397454  0.726232   0.726308   0 
C6       C      0.0188853  0.690481   0.711898   0 
O1       O      0.162845   0.272241   0.272318   0 
C3       C      0.0806153  0.273332   0.273408   0 
H1       H      0.0936854  0.290612   0.290688   0 
C4       C      0.0397454  0.274111   0.274188   0 
O1       O      0.838005   0.272241   0.728178   0 
C3       C      0.920235   0.273332   0.727088   0 
H1       H      0.907165   0.290612   0.709808   0 
C4       C      0.961105   0.274111   0.726308   0 
O1       O      0.838005   0.728101   0.272318   0 
C3       C      0.920235   0.727011   0.273408   0 
H1       H      0.907165   0.709731   0.290688   0 
C4       C      0.961105   0.726232   0.274188   0 
C6       C      0.981965   0.690481   0.288598   0 
O1       O      0.228355   0.662591   0.728178   0 
C1       C      0.250425   0.646741   0.750248   0 
C2       C      0.250425   0.603501   0.750248   0 
C3       C      0.227265   0.580361   0.727088   0 
H1       H      0.209985   0.593431   0.709808   0 
C4       C      0.226485   0.539492   0.726308   0 
C5       C      0.250425   0.520511   0.750248   0 
O1       O      0.772495   0.662591   0.272318   0 
C1       C      0.750425   0.646741   0.250248   0 
C2       C      0.750425   0.603501   0.250248   0 
C3       C      0.773585   0.580361   0.273408   0 
H1       H      0.790865   0.593431   0.290688   0 
C4       C      0.774365   0.539492   0.274188   0 
C5       C      0.750425   0.520511   0.250248   0 
O1       O      0.228355   0.337751   0.272318   0 
C1       C      0.250425   0.353602   0.250248   0 
C2       C      0.250425   0.396842   0.250248   0 
C3       C      0.227265   0.419981   0.273408   0 
H1       H      0.209985   0.406911   0.290688   0 
C4       C      0.226485   0.460851   0.274188   0 
C5       C      0.250425   0.479831   0.250248   0 
C6       C      0.212075   0.481711   0.309938   0 
O1       O      0.772495   0.337751   0.728178   0 
C1       C      0.750425   0.353602   0.750248   0 
C2       C      0.750425   0.396842   0.750248   0 
C3       C      0.773585   0.419981   0.727088   0 
H1       H      0.790865   0.406911   0.709808   0 
C4       C      0.774365   0.460851   0.726308   0 
C5       C      0.750425   0.479831   0.750248   0 
C6       C      0.788775   0.481711   0.690558   0 
Zn1      Zn     0.217705   0.717451   0.282968   0 
O1       O      0.228355   0.728101   0.337828   0 
C1       C      0.250425   0.750172   0.353678   0 
C2       C      0.250425   0.750172   0.396918   0 
C3       C      0.227265   0.727011   0.420058   0 
H1       H      0.209985   0.709731   0.406988   0 
C4       C      0.226485   0.726232   0.460928   0 
C5       C      0.250425   0.750172   0.479908   0 
Zn1      Zn     0.783145   0.282891   0.282968   0 
O1       O      0.772495   0.272241   0.337828   0 
C1       C      0.750425   0.250172   0.353678   0 
C2       C      0.750425   0.250172   0.396918   0 
C3       C      0.773585   0.273332   0.420058   0 
H1       H      0.790865   0.290612   0.406988   0 
C4       C      0.774365   0.274111   0.460928   0 
C5       C      0.750425   0.250172   0.479908   0 
Zn1      Zn     0.217705   0.282891   0.717528   0 
O1       O      0.228355   0.272241   0.662668   0 
C1       C      0.250425   0.250172   0.646818   0 
C2       C      0.250425   0.250172   0.603578   0 
C3       C      0.227265   0.273332   0.580438   0 
H1       H      0.209985   0.290612   0.593508   0 
C4       C      0.226485   0.274111   0.539568   0 
C5       C      0.250425   0.250172   0.520588   0 
C6       C      0.212075   0.309861   0.518708   0 
Zn1      Zn     0.783145   0.717451   0.717528   0 
O1       O      0.772495   0.728101   0.662668   0 
C1       C      0.750425   0.750172   0.646818   0 
C2       C      0.750425   0.750172   0.603578   0 
C3       C      0.773585   0.727011   0.580438   0 
H1       H      0.790865   0.709731   0.593508   0 
C4       C      0.774365   0.726232   0.539568   0 
C5       C      0.750425   0.750172   0.520588   0 
C6       C      0.788775   0.690481   0.518708   0 
O1       O      0.228355   0.662591   0.272318   0 
C1       C      0.250425   0.646741   0.250248   0 
C2       C      0.250425   0.603501   0.250248   0 
C3       C      0.227265   0.580361   0.273408   0 
H1       H      0.209985   0.593431   0.290688   0 
C4       C      0.226485   0.539492   0.274188   0 
C5       C      0.250425   0.520511   0.250248   0 
C6       C      0.190735   0.518631   0.288598   0 
O1       O      0.772495   0.662591   0.728178   0 
C1       C      0.750425   0.646741   0.750248   0 
C2       C      0.750425   0.603501   0.750248   0 
C3       C      0.773585   0.580361   0.727088   0 
H1       H      0.790865   0.593431   0.709808   0 
C4       C      0.774365   0.539492   0.726308   0 
C5       C      0.750425   0.520511   0.750248   0 
C6       C      0.810115   0.518631   0.711898   0 
O1       O      0.772495   0.337751   0.272318   0 
C1       C      0.750425   0.353602   0.250248   0 
C2       C      0.750425   0.396842   0.250248   0 
C3       C      0.773585   0.419981   0.273408   0 
H1       H      0.790865   0.406911   0.290688   0 
C4       C      0.774365   0.460851   0.274188   0 
C5       C      0.750425   0.479831   0.250248   0 
O1       O      0.228355   0.337751   0.728178   0 
C1       C      0.250425   0.353602   0.750248   0 
C2       C      0.250425   0.396842   0.750248   0 
C3       C      0.227265   0.419981   0.727088   0 
H1       H      0.209985   0.406911   0.709808   0 
C4       C      0.226485   0.460851   0.726308   0 
C5       C      0.250425   0.479831   0.750248   0 
O1       O      0.162845   0.728101   0.272318   0 
C3       C      0.0806153  0.727011   0.273408   0 
H1       H      0.0936854  0.709731   0.290688   0 
C4       C      0.0397454  0.726232   0.274188   0 
C6       C      0.0188853  0.711821   0.309938   0 
O1       O      0.162845   0.272241   0.728178   0 
C3       C      0.0806153  0.273332   0.727088   0 
H1       H      0.0936854  0.290612   0.709808   0 
C4       C      0.0397454  0.274111   0.726308   0 
O1       O      0.838005   0.728101   0.728178   0 
C3       C      0.920235   0.727011   0.727088   0 
H1       H      0.907165   0.709731   0.709808   0 
C4       C      0.961105   0.726232   0.726308   0 
C6       C      0.981965   0.711821   0.690558   0 
O1       O      0.838005   0.272241   0.272318   0 
C3       C      0.920235   0.273332   0.273408   0 
H1       H      0.907165   0.290612   0.290688   0 
C4       C      0.961105   0.274111   0.274188   0 
C6       C      0.810115   0.288521   0.481788   0 
C6       C      0.190735   0.711821   0.481788   0 
C6       C      0.981965   0.309861   0.288598   0 
C6       C      0.0188853  0.309861   0.711898   0 
C6       C      0.788775   0.481711   0.309938   0 
C6       C      0.212075   0.481711   0.690558   0 
C6       C      0.788775   0.309861   0.518708   0 
C6       C      0.212075   0.690481   0.518708   0 
C6       C      0.190735   0.518631   0.711898   0 
C6       C      0.810115   0.518631   0.288598   0 
C6       C      0.981965   0.288521   0.690558   0 
C6       C      0.0188853  0.288521   0.309938   0 
Zn1      Zn     0.717705   0.217451   0.717528   0 
O1       O      0.728355   0.228101   0.662668   0 
C3       C      0.727265   0.227011   0.580438   0 
H1       H      0.709985   0.209731   0.593508   0 
C4       C      0.726485   0.226232   0.539568   0 
C6       C      0.690735   0.211821   0.518708   0 
Zn1      Zn     0.283145   0.782891   0.717528   0 
O1       O      0.272495   0.772241   0.662668   0 
C3       C      0.273585   0.773332   0.580438   0 
H1       H      0.290865   0.790612   0.593508   0 
C4       C      0.274365   0.774111   0.539568   0 
C6       C      0.310115   0.788521   0.518708   0 
Zn1      Zn     0.283145   0.217451   0.282968   0 
O1       O      0.272495   0.228101   0.337828   0 
C3       C      0.273585   0.227011   0.420058   0 
H1       H      0.290865   0.209731   0.406988   0 
C4       C      0.274365   0.226232   0.460928   0 
Zn1      Zn     0.717705   0.782891   0.282968   0 
O1       O      0.728355   0.772241   0.337828   0 
C3       C      0.727265   0.773332   0.420058   0 
H1       H      0.709985   0.790612   0.406988   0 
C4       C      0.726485   0.774111   0.460928   0 
O1       O      0.662845   0.228101   0.728178   0 
C1       C      0.646995   0.250172   0.750248   0 
C2       C      0.603755   0.250172   0.750248   0 
C3       C      0.580615   0.227011   0.727088   0 
H1       H      0.593685   0.209731   0.709808   0 
C4       C      0.539745   0.226232   0.726308   0 
C5       C      0.520765   0.250172   0.750248   0 
O1       O      0.662845   0.772241   0.272318   0 
C1       C      0.646995   0.750172   0.250248   0 
C2       C      0.603755   0.750172   0.250248   0 
C3       C      0.580615   0.773332   0.273408   0 
H1       H      0.593685   0.790612   0.290688   0 
C4       C      0.539745   0.774111   0.274188   0 
C5       C      0.520765   0.750172   0.250248   0 
O1       O      0.338005   0.772241   0.728178   0 
C1       C      0.353855   0.750172   0.750248   0 
C2       C      0.397095   0.750172   0.750248   0 
C3       C      0.420235   0.773332   0.727088   0 
H1       H      0.407165   0.790612   0.709808   0 
C4       C      0.461105   0.774111   0.726308   0 
C5       C      0.480085   0.750172   0.750248   0 
C6       C      0.481965   0.809861   0.711898   0 
O1       O      0.338005   0.228101   0.272318   0 
C1       C      0.353855   0.250172   0.250248   0 
C2       C      0.397095   0.250172   0.250248   0 
C3       C      0.420235   0.227011   0.273408   0 
H1       H      0.407165   0.209731   0.290688   0 
C4       C      0.461105   0.226232   0.274188   0 
C5       C      0.480085   0.250172   0.250248   0 
C6       C      0.481965   0.190481   0.288598   0 
O1       O      0.728355   0.162591   0.728178   0 
C3       C      0.727265   0.0803615  0.727088   0 
H1       H      0.709985   0.0934315  0.709808   0 
C4       C      0.726485   0.0394915  0.726308   0 
O1       O      0.272495   0.162591   0.272318   0 
C3       C      0.273585   0.0803615  0.273408   0 
H1       H      0.290865   0.0934315  0.290688   0 
C4       C      0.274365   0.0394915  0.274188   0 
C6       C      0.288775   0.0186314  0.309938   0 
O1       O      0.728355   0.837751   0.272318   0 
C3       C      0.727265   0.919981   0.273408   0 
H1       H      0.709985   0.906911   0.290688   0 
C4       C      0.726485   0.960851   0.274188   0 
C6       C      0.712075   0.981711   0.309938   0 
O1       O      0.272495   0.837751   0.728178   0 
C3       C      0.273585   0.919981   0.727088   0 
H1       H      0.290865   0.906911   0.709808   0 
C4       C      0.274365   0.960851   0.726308   0 
Zn1      Zn     0.717705   0.217451   0.282968   0 
O1       O      0.728355   0.228101   0.337828   0 
C3       C      0.727265   0.227011   0.420058   0 
H1       H      0.709985   0.209731   0.406988   0 
C4       C      0.726485   0.226232   0.460928   0 
C6       C      0.712075   0.190481   0.481788   0 
Zn1      Zn     0.283145   0.782891   0.282968   0 
O1       O      0.272495   0.772241   0.337828   0 
C3       C      0.273585   0.773332   0.420058   0 
H1       H      0.290865   0.790612   0.406988   0 
C4       C      0.274365   0.774111   0.460928   0 
C6       C      0.288775   0.809861   0.481788   0 
Zn1      Zn     0.717705   0.782891   0.717528   0 
O1       O      0.728355   0.772241   0.662668   0 
C3       C      0.727265   0.773332   0.580438   0 
H1       H      0.709985   0.790612   0.593508   0 
C4       C      0.726485   0.774111   0.539568   0 
Zn1      Zn     0.283145   0.217451   0.717528   0 
O1       O      0.272495   0.228101   0.662668   0 
C3       C      0.273585   0.227011   0.580438   0 
H1       H      0.290865   0.209731   0.593508   0 
C4       C      0.274365   0.226232   0.539568   0 
O1       O      0.728355   0.162591   0.272318   0 
C3       C      0.727265   0.0803615  0.273408   0 
H1       H      0.709985   0.0934315  0.290688   0 
C4       C      0.726485   0.0394915  0.274188   0 
C6       C      0.690735   0.0186314  0.288598   0 
O1       O      0.272495   0.162591   0.728178   0 
C3       C      0.273585   0.0803615  0.727088   0 
H1       H      0.290865   0.0934315  0.709808   0 
C4       C      0.274365   0.0394915  0.726308   0 
O1       O      0.272495   0.837751   0.272318   0 
C3       C      0.273585   0.919981   0.273408   0 
H1       H      0.290865   0.906911   0.290688   0 
C4       C      0.274365   0.960851   0.274188   0 
C6       C      0.310115   0.981711   0.288598   0 
O1       O      0.728355   0.837751   0.728178   0 
C3       C      0.727265   0.919981   0.727088   0 
H1       H      0.709985   0.906911   0.709808   0 
C4       C      0.726485   0.960851   0.726308   0 
O1       O      0.662845   0.228101   0.272318   0 
C1       C      0.646995   0.250172   0.250248   0 
C2       C      0.603755   0.250172   0.250248   0 
C3       C      0.580615   0.227011   0.273408   0 
H1       H      0.593685   0.209731   0.290688   0 
C4       C      0.539745   0.226232   0.274188   0 
C5       C      0.520765   0.250172   0.250248   0 
C6       C      0.518885   0.211821   0.309938   0 
O1       O      0.662845   0.772241   0.728178   0 
C1       C      0.646995   0.750172   0.750248   0 
C2       C      0.603755   0.750172   0.750248   0 
C3       C      0.580615   0.773332   0.727088   0 
H1       H      0.593685   0.790612   0.709808   0 
C4       C      0.539745   0.774111   0.726308   0 
C5       C      0.520765   0.750172   0.750248   0 
C6       C      0.518885   0.788521   0.690558   0 
O1       O      0.338005   0.228101   0.728178   0 
C1       C      0.353855   0.250172   0.750248   0 
C2       C      0.397095   0.250172   0.750248   0 
C3       C      0.420235   0.227011   0.727088   0 
H1       H      0.407165   0.209731   0.709808   0 
C4       C      0.461105   0.226232   0.726308   0 
C5       C      0.480085   0.250172   0.750248   0 
O1       O      0.338005   0.772241   0.272318   0 
C1       C      0.353855   0.750172   0.250248   0 
C2       C      0.397095   0.750172   0.250248   0 
C3       C      0.420235   0.773332   0.273408   0 
H1       H      0.407165   0.790612   0.290688   0 
C4       C      0.461105   0.774111   0.274188   0 
C5       C      0.480085   0.750172   0.250248   0 
C6       C      0.690735   0.788521   0.518708   0 
C6       C      0.310115   0.211821   0.518708   0 
C6       C      0.481965   0.809861   0.288598   0 
C6       C      0.481965   0.190481   0.711898   0 
C6       C      0.712075   0.981711   0.690558   0 
C6       C      0.288775   0.0186314  0.690558   0 
C6       C      0.288775   0.190481   0.481788   0 
C6       C      0.712075   0.809861   0.481788   0 
C6       C      0.310115   0.981711   0.711898   0 
C6       C      0.690735   0.0186314  0.711898   0 
C6       C      0.518885   0.788521   0.309938   0 
C6       C      0.518885   0.211821   0.690558   0 
Zn1      Zn     0.717705   0.717451   0.217528   0 
O1       O      0.728355   0.728101   0.162668   0 
C3       C      0.727265   0.727011   0.0804382  0 
H1       H      0.709985   0.709731   0.0935082  0 
C4       C      0.726485   0.726232   0.0395683  0 
C6       C      0.690735   0.711821   0.0187081  0 
Zn1      Zn     0.283145   0.282891   0.217528   0 
O1       O      0.272495   0.272241   0.162668   0 
C3       C      0.273585   0.273332   0.0804382  0 
H1       H      0.290865   0.290612   0.0935082  0 
C4       C      0.274365   0.274111   0.0395683  0 
Zn1      Zn     0.283145   0.717451   0.782968   0 
O1       O      0.272495   0.728101   0.837828   0 
C3       C      0.273585   0.727011   0.920058   0 
H1       H      0.290865   0.709731   0.906988   0 
C4       C      0.274365   0.726232   0.960928   0 
C6       C      0.310115   0.711821   0.981788   0 
Zn1      Zn     0.717705   0.282891   0.782968   0 
O1       O      0.728355   0.272241   0.837828   0 
C3       C      0.727265   0.273332   0.920058   0 
H1       H      0.709985   0.290612   0.906988   0 
C4       C      0.726485   0.274111   0.960928   0 
O1       O      0.662845   0.728101   0.228178   0 
C3       C      0.580615   0.727011   0.227088   0 
H1       H      0.593685   0.709731   0.209808   0 
C4       C      0.539745   0.726232   0.226308   0 
C6       C      0.518885   0.690481   0.211898   0 
O1       O      0.662845   0.272241   0.772318   0 
C3       C      0.580615   0.273332   0.773408   0 
H1       H      0.593685   0.290612   0.790688   0 
C4       C      0.539745   0.274111   0.774188   0 
C6       C      0.518885   0.309861   0.788598   0 
O1       O      0.338005   0.272241   0.228178   0 
C3       C      0.420235   0.273332   0.227088   0 
H1       H      0.407165   0.290612   0.209808   0 
C4       C      0.461105   0.274111   0.226308   0 
O1       O      0.338005   0.728101   0.772318   0 
C3       C      0.420235   0.727011   0.773408   0 
H1       H      0.407165   0.709731   0.790688   0 
C4       C      0.461105   0.726232   0.774188   0 
O1       O      0.728355   0.662591   0.228178   0 
C3       C      0.727265   0.580361   0.227088   0 
H1       H      0.709985   0.593431   0.209808   0 
C4       C      0.726485   0.539492   0.226308   0 
C6       C      0.712075   0.518631   0.190558   0 
O1       O      0.272495   0.662591   0.772318   0 
C3       C      0.273585   0.580361   0.773408   0 
H1       H      0.290865   0.593431   0.790688   0 
C4       C      0.274365   0.539492   0.774188   0 
C6       C      0.288775   0.518631   0.809938   0 
O1       O      0.728355   0.337751   0.772318   0 
C3       C      0.727265   0.419981   0.773408   0 
H1       H      0.709985   0.406911   0.790688   0 
C4       C      0.726485   0.460851   0.774188   0 
O1       O      0.272495   0.337751   0.228178   0 
C3       C      0.273585   0.419981   0.227088   0 
H1       H      0.290865   0.406911   0.209808   0 
C4       C      0.274365   0.460851   0.226308   0 
Zn1      Zn     0.717705   0.717451   0.782968   0 
O1       O      0.728355   0.728101   0.837828   0 
C3       C      0.727265   0.727011   0.920058   0 
H1       H      0.709985   0.709731   0.906988   0 
C4       C      0.726485   0.726232   0.960928   0 
C6       C      0.712075   0.690481   0.981788   0 
Zn1      Zn     0.283145   0.282891   0.782968   0 
O1       O      0.272495   0.272241   0.837828   0 
C3       C      0.273585   0.273332   0.920058   0 
H1       H      0.290865   0.290612   0.906988   0 
C4       C      0.274365   0.274111   0.960928   0 
Zn1      Zn     0.717705   0.282891   0.217528   0 
O1       O      0.728355   0.272241   0.162668   0 
C3       C      0.727265   0.273332   0.0804382  0 
H1       H      0.709985   0.290612   0.0935082  0 
C4       C      0.726485   0.274111   0.0395683  0 
Zn1      Zn     0.283145   0.717451   0.217528   0 
O1       O      0.272495   0.728101   0.162668   0 
C3       C      0.273585   0.727011   0.0804382  0 
H1       H      0.290865   0.709731   0.0935082  0 
C4       C      0.274365   0.726232   0.0395683  0 
C6       C      0.288775   0.690481   0.0187081  0 
O1       O      0.728355   0.662591   0.772318   0 
C3       C      0.727265   0.580361   0.773408   0 
H1       H      0.709985   0.593431   0.790688   0 
C4       C      0.726485   0.539492   0.774188   0 
O1       O      0.272495   0.662591   0.228178   0 
C3       C      0.273585   0.580361   0.227088   0 
H1       H      0.290865   0.593431   0.209808   0 
C4       C      0.274365   0.539492   0.226308   0 
O1       O      0.272495   0.337751   0.772318   0 
C3       C      0.273585   0.419981   0.773408   0 
H1       H      0.290865   0.406911   0.790688   0 
C4       C      0.274365   0.460851   0.774188   0 
C6       C      0.310115   0.481711   0.788598   0 
O1       O      0.728355   0.337751   0.228178   0 
C3       C      0.727265   0.419981   0.227088   0 
H1       H      0.709985   0.406911   0.209808   0 
C4       C      0.726485   0.460851   0.226308   0 
C6       C      0.690735   0.481711   0.211898   0 
O1       O      0.662845   0.728101   0.772318   0 
C3       C      0.580615   0.727011   0.773408   0 
H1       H      0.593685   0.709731   0.790688   0 
C4       C      0.539745   0.726232   0.774188   0 
O1       O      0.662845   0.272241   0.228178   0 
C3       C      0.580615   0.273332   0.227088   0 
H1       H      0.593685   0.290612   0.209808   0 
C4       C      0.539745   0.274111   0.226308   0 
O1       O      0.338005   0.728101   0.228178   0 
C3       C      0.420235   0.727011   0.227088   0 
H1       H      0.407165   0.709731   0.209808   0 
C4       C      0.461105   0.726232   0.226308   0 
C6       C      0.481965   0.711821   0.190558   0 
O1       O      0.338005   0.272241   0.772318   0 
C3       C      0.420235   0.273332   0.773408   0 
H1       H      0.407165   0.290612   0.790688   0 
C4       C      0.461105   0.274111   0.774188   0 
C6       C      0.481965   0.288521   0.809938   0 
C6       C      0.690735   0.288521   0.0187081  0 
C6       C      0.518885   0.690481   0.788598   0 
C6       C      0.518885   0.309861   0.211898   0 
C6       C      0.288775   0.518631   0.190558   0 
C6       C      0.712075   0.518631   0.809938   0 
C6       C      0.288775   0.309861   0.0187081  0 
C6       C      0.712075   0.309861   0.981788   0 
C6       C      0.310115   0.481711   0.211898   0 
C6       C      0.690735   0.481711   0.788598   0 
C6       C      0.481965   0.288521   0.190558   0 
C6       C      0.481965   0.711821   0.809938   0 
H2       H      0.173975   0.509312   0.268588   0 
H2       H      0.176815   0.534101   0.306908   0 
H2       H      0.194965   0.465102   0.324068   0 
H2       H      0.233175   0.490152   0.325798   0 
H2       H      0.174705   0.511791   0.733448   0 
H2       H      0.176815   0.534101   0.693588   0 
H2       H      0.233625   0.488551   0.674528   0 
H2       H      0.193765   0.466242   0.676638   0 
H2       H      0.326875   0.491031   0.768588   0 
H2       H      0.324035   0.466242   0.806908   0 
H2       H      0.305885   0.535241   0.824068   0 
H2       H      0.267675   0.510191   0.825798   0 
H2       H      0.267225   0.511791   0.174528   0 
H2       H      0.307085   0.534101   0.176638   0 
H2       H      0.326145   0.488551   0.233448   0 
H2       H      0.324035   0.466242   0.193588   0 
H2       H      0.694965   0.535241   0.176428   0 
H2       H      0.733175   0.510191   0.174698   0 
H2       H      0.673975   0.491031   0.231908   0 
H2       H      0.676815   0.466242   0.193588   0 
H2       H      0.826145   0.511791   0.267048   0 
H2       H      0.824035   0.534101   0.306908   0 
H2       H      0.767225   0.488551   0.325968   0 
H2       H      0.807085   0.466242   0.323858   0 
H2       H      0.733625   0.511791   0.825968   0 
H2       H      0.693765   0.534101   0.823858   0 
H2       H      0.674705   0.488551   0.767048   0 
H2       H      0.676815   0.466242   0.806908   0 
H2       H      0.826875   0.509312   0.731908   0 
H2       H      0.824035   0.534101   0.693588   0 
H2       H      0.805885   0.465102   0.676428   0 
H2       H      0.767675   0.490152   0.674698   0 
H2       H      0.535495   0.676351   0.194788   0 
H2       H      0.510445   0.674621   0.232998   0 
H2       H      0.491285   0.731832   0.173798   0 
H2       H      0.466495   0.693511   0.176638   0 
H2       H      0.512045   0.766971   0.325968   0 
H2       H      0.534355   0.806831   0.323858   0 
H2       H      0.488805   0.825891   0.267048   0 
H2       H      0.466495   0.823782   0.306908   0 
H2       H      0.512045   0.674451   0.767048   0 
H2       H      0.534355   0.676561   0.806908   0 
H2       H      0.488805   0.733371   0.825968   0 
H2       H      0.466495   0.693511   0.823858   0 
H2       H      0.509565   0.768511   0.673798   0 
H2       H      0.534355   0.806831   0.676638   0 
H2       H      0.465355   0.823992   0.694788   0 
H2       H      0.490405   0.825721   0.732998   0 
H2       H      0.535495   0.323992   0.805708   0 
H2       H      0.510445   0.325721   0.767498   0 
H2       H      0.491285   0.268511   0.826698   0 
H2       H      0.466495   0.306831   0.823858   0 
H2       H      0.512045   0.233371   0.674528   0 
H2       H      0.534355   0.193511   0.676638   0 
H2       H      0.488805   0.174451   0.733448   0 
H2       H      0.466495   0.176561   0.693588   0 
H2       H      0.512045   0.325891   0.233448   0 
H2       H      0.534355   0.323782   0.193588   0 
H2       H      0.488805   0.266971   0.174528   0 
H2       H      0.466495   0.306831   0.176638   0 
H2       H      0.465355   0.176351   0.305708   0 
H2       H      0.490405   0.174621   0.267498   0 
H2       H      0.509565   0.231832   0.326698   0 
H2       H      0.534355   0.193511   0.323858   0 
H2       H      0.268765   0.826621   0.491108   0 
H2       H      0.307085   0.823782   0.466318   0 
H2       H      0.324245   0.805631   0.535318   0 
H2       H      0.325975   0.767422   0.510268   0 
H2       H      0.233625   0.674451   0.511868   0 
H2       H      0.193765   0.676561   0.534178   0 
H2       H      0.174705   0.733371   0.488628   0 
H2       H      0.176815   0.693511   0.466318   0 
H2       H      0.733625   0.825891   0.488628   0 
H2       H      0.693765   0.823782   0.466318   0 
H2       H      0.674705   0.766971   0.511868   0 
H2       H      0.676815   0.806831   0.534178   0 
H2       H      0.768765   0.673722   0.509388   0 
H2       H      0.807085   0.676561   0.534178   0 
H2       H      0.824245   0.694712   0.465178   0 
H2       H      0.825975   0.732921   0.490228   0 
H2       H      0.176605   0.305631   0.465178   0 
H2       H      0.174875   0.267422   0.490228   0 
H2       H      0.232085   0.326621   0.509388   0 
H2       H      0.193765   0.323782   0.534178   0 
H2       H      0.326145   0.233371   0.511868   0 
H2       H      0.324035   0.193511   0.534178   0 
H2       H      0.267225   0.174451   0.488628   0 
H2       H      0.307085   0.176561   0.466318   0 
H2       H      0.767225   0.325891   0.511868   0 
H2       H      0.807085   0.323782   0.534178   0 
H2       H      0.826145   0.266971   0.488628   0 
H2       H      0.824035   0.306831   0.466318   0 
H2       H      0.676605   0.194712   0.535318   0 
H2       H      0.674875   0.232921   0.510268   0 
H2       H      0.732085   0.173722   0.491108   0 
H2       H      0.693765   0.176561   0.466318   0 
H2       H      0.0188153  0.316231   0.310058   0 
H2       H      0.0318655  0.279221   0.332588   0 
H2       H      0.0101553  0.175521   0.233538   0 
H2       H      0.0361953  0.175251   0.196518   0 
H2       H      0.0101553  0.324821   0.733538   0 
H2       H      0.0361953  0.325092   0.696518   0 
H2       H      0.0101553  0.233461   0.824898   0 
H2       H      0.0361953  0.196441   0.825168   0 
H2       H      0.0101553  0.675521   0.733538   0 
H2       H      0.0361953  0.675251   0.696518   0 
H2       H      0.0188153  0.816231   0.810058   0 
H2       H      0.0318655  0.779221   0.832588   0 
H2       H      0.0101553  0.733461   0.324898   0 
H2       H      0.0361953  0.696441   0.325168   0 
H2       H      0.0101553  0.824821   0.233538   0 
H2       H      0.0361953  0.825092   0.196518   0 
H2       H      0.314965   0.974621   0.314948   0 
H2       H      0.331885   0.974621   0.272978   0 
H2       H      0.227695   0.974621   0.168788   0 
H2       H      0.185725   0.974621   0.185708   0 
H2       H      0.685725   0.974621   0.314788   0 
H2       H      0.727695   0.974621   0.331708   0 
H2       H      0.831885   0.974621   0.227518   0 
H2       H      0.814965   0.974621   0.185548   0 
H2       H      0.727695   0.974621   0.668788   0 
H2       H      0.685725   0.974621   0.685708   0 
H2       H      0.814965   0.974621   0.814948   0 
H2       H      0.831885   0.974621   0.772978   0 
H2       H      0.968985   0.779221   0.167908   0 
H2       H      0.982035   0.690362   0.316308   0 
H2       H      0.968985   0.667831   0.279298   0 
H2       H      0.982035   0.809981   0.816308   0 
H2       H      0.968985   0.832512   0.779298   0 
H2       H      0.990695   0.733461   0.675598   0 
H2       H      0.964655   0.696441   0.675328   0 
H2       H      0.982035   0.309981   0.316308   0 
H2       H      0.968985   0.332512   0.279298   0 
H2       H      0.990695   0.233461   0.175598   0 
H2       H      0.964655   0.196441   0.175328   0 
H2       H      0.982035   0.316231   0.690438   0 
H2       H      0.968985   0.279221   0.667908   0 
H2       H      0.982035   0.190362   0.816308   0 
H2       H      0.968985   0.167831   0.779298   0 
H2       H      0.796465   0.0372115  0.171488   0 
H2       H      0.768505   0.0027414  0.180328   0 
H2       H      0.671665   0.0372115  0.296288   0 
H2       H      0.680505   0.0027414  0.268328   0 
H2       H      0.796465   0.0372115  0.829008   0 
H2       H      0.768505   0.0027414  0.820168   0 
H2       H      0.671665   0.0372115  0.704208   0 
H2       H      0.680505   0.0027414  0.732168   0 
H2       H      0.296465   0.0372115  0.329008   0 
H2       H      0.268505   0.0027414  0.320168   0 
H2       H      0.171665   0.0372115  0.204208   0 
H2       H      0.180505   0.0027414  0.232168   0 
H2       H      0.171665   0.0372115  0.796288   0 
H2       H      0.180505   0.0027414  0.768328   0 
H2       H      0.296465   0.0372115  0.671488   0 
H2       H      0.268505   0.0027414  0.680328   0 
H2       H      0.175775   0.233461   0.0099781  0
H2       H      0.175505   0.196441   0.0360182  0 
H2       H      0.296465   0.328931   0.0372883  0 
H2       H      0.268505   0.320091   0.0028181  0
H2       H      0.796465   0.171412   0.0372883  0 
H2       H      0.768505   0.180251   0.0028181  0
H2       H      0.690615   0.316231   0.0186381  0 
H2       H      0.668085   0.279221   0.0316883  0 
H2       H      0.296465   0.671412   0.0372883  0 
H2       H      0.268505   0.680251   0.0028181  0
H2       H      0.190615   0.816231   0.0186381  0 
H2       H      0.168085   0.779221   0.0316883  0 
H2       H      0.675775   0.733461   0.0099781  0
H2       H      0.675505   0.696441   0.0360182  0 
H2       H      0.796465   0.828931   0.0372883  0 
H2       H      0.768505   0.820091   0.0028181  0
H2       H      0.185725   0.185631   0.974698   0 
H2       H      0.227695   0.168711   0.974698   0 
H2       H      0.825075   0.233461   0.990518   0 
H2       H      0.825345   0.196441   0.964478   0 
H2       H      0.727695   0.331631   0.974698   0 
H2       H      0.685725   0.314711   0.974698   0 
H2       H      0.325075   0.733461   0.990518   0 
H2       H      0.325345   0.696441   0.964478   0 
H2       H      0.227695   0.831631   0.974698   0 
H2       H      0.185725   0.814711   0.974698   0 
H2       H      0.685725   0.685631   0.974698   0 
H2       H      0.727695   0.668711   0.974698   0 
H2       H      0.331885   0.974621   0.727518   0 
H2       H      0.314965   0.974621   0.685548   0 
H2       H      0.185725   0.974621   0.814788   0 
H2       H      0.227695   0.974621   0.831708   0 
H2       H      0.982035   0.816231   0.190438   0 
C6       C      0.810158   0.788539   0.981813   0 
H2       H      0.831346   0.771403   0.97675    0 
H2       H      0.81649    0.813973   0.972803   0 
C6       C      0.310129   0.288527   0.981796   0 
H2       H      0.330838   0.270462   0.978194   0 
H2       H      0.317498   0.313196   0.971535   0 


