data_IRMOF-8

_audit_creation_method RASPA-1.0
_audit_creation_date 2011-3-7
_audit_author_name 'Tina Duren/Houston Frost/Randall Snurr/David Dubbeldam'

_citation_author_name        'M. Eddaoudi, J. Kim, N. Rosi, D. Vodak, J. Wachter, M. Oâ€™Keeffe, and O.M. Yaghi',
_citation_title              'Systematic design of pore size and functionality in isoreticular MOFs and their application in methane storage'
_citation_journal_abbrev     'Science'
_citation_journal_volume     295
_citation_journal_number     5554
_citation_page_first         469
_citation_page_last          472
_citation_year               2002

_cell_length_a    30.0915
_cell_length_b    30.0915
_cell_length_c    30.0915
_cell_angle_alpha 90
_cell_angle_beta  90
_cell_angle_gamma 90
_cell_volume      27247.8

_symmetry_cell_setting          triclinic
_symmetry_space_group_name_Hall 'P 1'
_symmetry_space_group_name_H-M  'P 1'
_symmetry_Int_Tables_number     1

_symmetry_equiv_pos_as_xyz 'x,y,z'

loop_
_atom_site_label
_atom_site_type_symbol
_atom_site_fract_x
_atom_site_fract_y
_atom_site_fract_z
_atom_site_charge
Zn1      Zn     0.21282    0.28718    0.21282    0 
O1       O      0.25       0.25       0.25       0 
O2       O      0.27541    0.65231    0.27541    0 
C1       C      0.25       0.63255    0.25       0 
C2       C      0.25       0.58329    0.25       0 
C3       C      0.27297    0.55331    0.27297    0 
Zn1      Zn     0.78718    0.71282    0.21282    0 
O1       O      0.75       0.75       0.25       0 
O2       O      0.72459    0.34769    0.27541    0 
C1       C      0.75       0.36745    0.25       0 
C2       C      0.75       0.41671    0.25       0 
C4       C      0.71804    0.43012    0.28196    0 
C5       C      0.70945    0.47517    0.29055    0 
C6       C      0.73406    0.507      0.26594    0 
Zn1      Zn     0.78718    0.28718    0.78718    0 
O1       O      0.75       0.25       0.75       0 
O2       O      0.72459    0.65231    0.72459    0 
C1       C      0.75       0.63255    0.75       0 
C2       C      0.75       0.58329    0.75       0 
C3       C      0.72703    0.55331    0.72703    0 
Zn1      Zn     0.21282    0.71282    0.78718    0 
O1       O      0.25       0.75       0.75       0 
O2       O      0.27541    0.34769    0.72459    0 
C1       C      0.25       0.36745    0.75       0 
C2       C      0.25       0.41671    0.75       0 
C5       C      0.29055    0.47517    0.70945    0 
C6       C      0.26594    0.507      0.73406    0 
Zn1      Zn     0.21282    0.21282    0.28718    0 
O2       O      0.27541    0.27541    0.65231    0 
C1       C      0.25       0.25       0.63255    0 
C2       C      0.25       0.25       0.58329    0 
C4       C      0.28196    0.28196    0.56988    0 
C5       C      0.29055    0.29055    0.52483    0 
C6       C      0.26594    0.26594    0.493      0 
Zn1      Zn     0.21282    0.78718    0.71282    0 
O2       O      0.27541    0.72459    0.34769    0 
C1       C      0.25       0.75       0.36745    0 
C2       C      0.25       0.75       0.41671    0 
C3       C      0.27297    0.72703    0.44669    0 
Zn1      Zn     0.78718    0.78718    0.28718    0 
O2       O      0.72459    0.72459    0.65231    0 
C1       C      0.75       0.75       0.63255    0 
C2       C      0.75       0.75       0.58329    0 
C4       C      0.71804    0.71804    0.56988    0 
C5       C      0.70945    0.70945    0.52483    0 
C6       C      0.73406    0.73406    0.493      0 
Zn1      Zn     0.78718    0.21282    0.71282    0 
O2       O      0.72459    0.27541    0.34769    0 
C1       C      0.75       0.25       0.36745    0 
C2       C      0.75       0.25       0.41671    0 
C3       C      0.72703    0.27297    0.44669    0 
Zn1      Zn     0.28718    0.21282    0.21282    0 
O2       O      0.65231    0.27541    0.27541    0 
C1       C      0.63255    0.25       0.25       0 
C2       C      0.58329    0.25       0.25       0 
C4       C      0.56988    0.28196    0.28196    0 
C5       C      0.52483    0.29055    0.29055    0 
C6       C      0.493      0.26594    0.26594    0 
Zn1      Zn     0.71282    0.21282    0.78718    0 
O2       O      0.34769    0.27541    0.72459    0 
C1       C      0.36745    0.25       0.75       0 
C2       C      0.41671    0.25       0.75       0 
C3       C      0.44669    0.27297    0.72703    0 
Zn1      Zn     0.28718    0.78718    0.78718    0 
O2       O      0.65231    0.72459    0.72459    0 
C1       C      0.63255    0.75       0.75       0 
C2       C      0.58329    0.75       0.75       0 
C4       C      0.56988    0.71804    0.71804    0 
C5       C      0.52483    0.70945    0.70945    0 
C6       C      0.493      0.73406    0.73406    0 
Zn1      Zn     0.71282    0.78718    0.21282    0 
O2       O      0.34769    0.72459    0.27541    0 
C1       C      0.36745    0.75       0.25       0 
C2       C      0.41671    0.75       0.25       0 
C3       C      0.44669    0.72703    0.27297    0 
Zn1      Zn     0.28718    0.21282    0.78718    0 
O1       O      0.25       0.25       0.75       0 
O2       O      0.65231    0.27541    0.72459    0 
C1       C      0.63255    0.25       0.75       0 
C2       C      0.58329    0.25       0.75       0 
C4       C      0.56988    0.28196    0.71804    0 
C5       C      0.52483    0.29055    0.70945    0 
C6       C      0.493      0.26594    0.73406    0 
Zn1      Zn     0.71282    0.78718    0.78718    0 
O1       O      0.75       0.75       0.75       0 
O2       O      0.34769    0.72459    0.72459    0 
C1       C      0.36745    0.75       0.75       0 
C2       C      0.41671    0.75       0.75       0 
C3       C      0.44669    0.72703    0.72703    0 
Zn1      Zn     0.28718    0.78718    0.21282    0 
O1       O      0.25       0.75       0.25       0 
O2       O      0.65231    0.72459    0.27541    0 
C1       C      0.63255    0.75       0.25       0 
C2       C      0.58329    0.75       0.25       0 
C4       C      0.56988    0.71804    0.28196    0 
C5       C      0.52483    0.70945    0.29055    0 
C6       C      0.493      0.73406    0.26594    0 
Zn1      Zn     0.71282    0.21282    0.21282    0 
O1       O      0.75       0.25       0.25       0 
O2       O      0.34769    0.27541    0.27541    0 
C1       C      0.36745    0.25       0.25       0 
C2       C      0.41671    0.25       0.25       0 
C3       C      0.44669    0.27297    0.27297    0 
Zn1      Zn     0.21282    0.21282    0.71282    0 
O2       O      0.27541    0.27541    0.34769    0 
C1       C      0.25       0.25       0.36745    0 
C2       C      0.25       0.25       0.41671    0 
C3       C      0.27297    0.27297    0.44669    0 
Zn1      Zn     0.78718    0.21282    0.28718    0 
O2       O      0.72459    0.27541    0.65231    0 
C1       C      0.75       0.25       0.63255    0 
C2       C      0.75       0.25       0.58329    0 
C4       C      0.71804    0.28196    0.56988    0 
C5       C      0.70945    0.29055    0.52483    0 
C6       C      0.73406    0.26594    0.493      0 
Zn1      Zn     0.78718    0.78718    0.71282    0 
O2       O      0.72459    0.72459    0.34769    0 
C1       C      0.75       0.75       0.36745    0 
C2       C      0.75       0.75       0.41671    0 
C3       C      0.72703    0.72703    0.44669    0 
Zn1      Zn     0.21282    0.78718    0.28718    0 
O2       O      0.27541    0.72459    0.65231    0 
C1       C      0.25       0.75       0.63255    0 
C2       C      0.25       0.75       0.58329    0 
C4       C      0.28196    0.71804    0.56988    0 
C5       C      0.29055    0.70945    0.52483    0 
C6       C      0.26594    0.73406    0.493      0 
Zn1      Zn     0.21282    0.28718    0.78718    0 
O2       O      0.27541    0.65231    0.72459    0 
C1       C      0.25       0.63255    0.75       0 
C2       C      0.25       0.58329    0.75       0 
Zn1      Zn     0.21282    0.71282    0.21282    0 
O2       O      0.27541    0.34769    0.27541    0 
C1       C      0.25       0.36745    0.25       0 
C2       C      0.25       0.41671    0.25       0 
C4       C      0.28196    0.43012    0.28196    0 
C5       C      0.29055    0.47517    0.29055    0 
C6       C      0.26594    0.507      0.26594    0 
Zn1      Zn     0.78718    0.28718    0.21282    0 
O2       O      0.72459    0.65231    0.27541    0 
C1       C      0.75       0.63255    0.25       0 
C2       C      0.75       0.58329    0.25       0 
C3       C      0.72703    0.55331    0.27297    0 
Zn1      Zn     0.78718    0.71282    0.78718    0 
O2       O      0.72459    0.34769    0.72459    0 
C1       C      0.75       0.36745    0.75       0 
C2       C      0.75       0.41671    0.75       0 
C4       C      0.71804    0.43012    0.71804    0 
C5       C      0.70945    0.47517    0.70945    0 
C6       C      0.73406    0.507      0.73406    0 
O2       O      0.27541    0.15231    0.77541    0 
C1       C      0.25       0.13255    0.75       0 
C2       C      0.25       0.08329    0.75       0 
C3       C      0.27297    0.05331    0.77297    0 
O2       O      0.72459    0.84769    0.77541    0 
C1       C      0.75       0.86745    0.75       0 
C2       C      0.75       0.91671    0.75       0 
C4       C      0.71804    0.93012    0.78196    0 
C5       C      0.70945    0.97517    0.79055    0 
C6       C      0.73406    0.007      0.76594    0 
O2       O      0.72459    0.15231    0.22459    0 
C1       C      0.75       0.13255    0.25       0 
C2       C      0.75       0.08329    0.25       0 
C3       C      0.72703    0.05331    0.22703    0 
O2       O      0.27541    0.84769    0.22459    0 
C1       C      0.25       0.86745    0.25       0 
C2       C      0.25       0.91671    0.25       0 
C4       C      0.28196    0.93012    0.21804    0 
C5       C      0.29055    0.97517    0.20945    0 
C6       C      0.26594    0.007      0.23406    0 
O2       O      0.27541    0.77541    0.15231    0 
C1       C      0.25       0.75       0.13255    0 
C2       C      0.25       0.75       0.08329    0 
C4       C      0.28196    0.78196    0.06988    0 
C5       C      0.29055    0.79055    0.02483    0 
C6       C      0.26594    0.76594    0.993      0 
O2       O      0.27541    0.22459    0.84769    0 
C1       C      0.25       0.25       0.86745    0 
C2       C      0.25       0.25       0.91671    0 
C3       C      0.27297    0.22703    0.94669    0 
O2       O      0.72459    0.22459    0.15231    0 
C1       C      0.75       0.25       0.13255    0 
C2       C      0.75       0.25       0.08329    0 
C5       C      0.70945    0.20945    0.02483    0 
C6       C      0.73406    0.23406    0.993      0 
O2       O      0.72459    0.77541    0.84769    0 
C1       C      0.75       0.75       0.86745    0 
C2       C      0.75       0.75       0.91671    0 
C3       C      0.72703    0.77297    0.94669    0 
Zn1      Zn     0.28718    0.71282    0.71282    0 
O2       O      0.65231    0.77541    0.77541    0 
C3       C      0.55331    0.77297    0.77297    0 
Zn1      Zn     0.71282    0.71282    0.28718    0 
O2       O      0.34769    0.77541    0.22459    0 
C4       C      0.43012    0.78196    0.21804    0 
C5       C      0.47517    0.79055    0.20945    0 
C6       C      0.507      0.76594    0.23406    0 
Zn1      Zn     0.28718    0.28718    0.28718    0 
O2       O      0.65231    0.22459    0.22459    0 
C3       C      0.55331    0.22703    0.22703    0 
Zn1      Zn     0.71282    0.28718    0.71282    0 
O2       O      0.34769    0.22459    0.77541    0 
C4       C      0.43012    0.21804    0.78196    0 
C5       C      0.47517    0.20945    0.79055    0 
C6       C      0.507      0.23406    0.76594    0 
Zn1      Zn     0.28718    0.71282    0.28718    0 
O2       O      0.65231    0.77541    0.22459    0 
C3       C      0.55331    0.77297    0.22703    0 
Zn1      Zn     0.71282    0.28718    0.28718    0 
O2       O      0.34769    0.22459    0.22459    0 
C4       C      0.43012    0.21804    0.21804    0 
C5       C      0.47517    0.20945    0.20945    0 
C6       C      0.507      0.23406    0.23406    0 
Zn1      Zn     0.28718    0.28718    0.71282    0 
O2       O      0.65231    0.22459    0.77541    0 
C3       C      0.55331    0.22703    0.77297    0 
Zn1      Zn     0.71282    0.71282    0.71282    0 
O2       O      0.34769    0.77541    0.77541    0 
C4       C      0.43012    0.78196    0.78196    0 
C5       C      0.47517    0.79055    0.79055    0 
C6       C      0.507      0.76594    0.76594    0 
O2       O      0.27541    0.77541    0.84769    0 
C1       C      0.25       0.75       0.86745    0 
C2       C      0.25       0.75       0.91671    0 
C3       C      0.27297    0.77297    0.94669    0 
O2       O      0.72459    0.77541    0.15231    0 
C1       C      0.75       0.75       0.13255    0 
C2       C      0.75       0.75       0.08329    0 
C4       C      0.71804    0.78196    0.06988    0 
C5       C      0.70945    0.79055    0.02483    0 
C6       C      0.73406    0.76594    0.993      0 
O2       O      0.72459    0.22459    0.84769    0 
C1       C      0.75       0.25       0.86745    0 
C2       C      0.75       0.25       0.91671    0 
C3       C      0.72703    0.22703    0.94669    0 
O2       O      0.27541    0.22459    0.15231    0 
C1       C      0.25       0.25       0.13255    0 
C2       C      0.25       0.25       0.08329    0 
C4       C      0.28196    0.21804    0.06988    0 
C5       C      0.29055    0.20945    0.02483    0 
C6       C      0.26594    0.23406    0.993      0 
O2       O      0.27541    0.15231    0.22459    0 
C1       C      0.25       0.13255    0.25       0 
C2       C      0.25       0.08329    0.25       0 
C3       C      0.27297    0.05331    0.22703    0 
O2       O      0.27541    0.84769    0.77541    0 
C1       C      0.25       0.86745    0.75       0 
C2       C      0.25       0.91671    0.75       0 
C4       C      0.28196    0.93012    0.78196    0 
C5       C      0.29055    0.97517    0.79055    0 
C6       C      0.26594    0.007      0.76594    0 
O2       O      0.72459    0.15231    0.77541    0 
C1       C      0.75       0.13255    0.75       0 
C2       C      0.75       0.08329    0.75       0 
C3       C      0.72703    0.05331    0.77297    0 
O2       O      0.72459    0.84769    0.22459    0 
C1       C      0.75       0.86745    0.25       0 
C2       C      0.75       0.91671    0.25       0 
C4       C      0.71804    0.93012    0.21804    0 
C5       C      0.70945    0.97517    0.20945    0 
C6       C      0.73406    0.007      0.23406    0 
O2       O      0.77541    0.65231    0.77541    0 
C4       C      0.78196    0.56988    0.78196    0 
C5       C      0.79055    0.52483    0.79055    0 
C6       C      0.76594    0.493      0.76594    0 
O2       O      0.22459    0.34769    0.77541    0 
C3       C      0.22703    0.44669    0.77297    0 
O2       O      0.22459    0.65231    0.22459    0 
C4       C      0.21804    0.56988    0.21804    0 
C5       C      0.20945    0.52483    0.20945    0 
C6       C      0.23406    0.493      0.23406    0 
O2       O      0.77541    0.34769    0.22459    0 
C3       C      0.77297    0.44669    0.22703    0 
O2       O      0.77541    0.27541    0.15231    0 
O2       O      0.77541    0.72459    0.84769    0 
C4       C      0.78196    0.71804    0.93012    0 
C5       C      0.79055    0.70945    0.97517    0 
C6       C      0.76594    0.73406    0.007      0 
O2       O      0.22459    0.72459    0.15231    0 
C3       C      0.22703    0.72703    0.05331    0 
O2       O      0.22459    0.27541    0.84769    0 
C4       C      0.21804    0.28196    0.93012    0 
C5       C      0.20945    0.29055    0.97517    0 
C6       C      0.23406    0.26594    0.007      0 
O2       O      0.15231    0.27541    0.77541    0 
C1       C      0.13255    0.25       0.75       0 
C2       C      0.08329    0.25       0.75       0 
C4       C      0.06988    0.28196    0.78196    0 
C5       C      0.02483    0.29055    0.79055    0 
C6       C      0.993      0.26594    0.76594    0 
O2       O      0.84769    0.27541    0.22459    0 
C1       C      0.86745    0.25       0.25       0 
C2       C      0.91671    0.25       0.25       0 
C3       C      0.94669    0.27297    0.22703    0 
O2       O      0.15231    0.72459    0.22459    0 
C1       C      0.13255    0.75       0.25       0 
C2       C      0.08329    0.75       0.25       0 
C4       C      0.06988    0.71804    0.21804    0 
C5       C      0.02483    0.70945    0.20945    0 
C6       C      0.993      0.73406    0.23406    0 
O2       O      0.84769    0.72459    0.77541    0 
C1       C      0.86745    0.75       0.75       0 
C2       C      0.91671    0.75       0.75       0 
C3       C      0.94669    0.72703    0.77297    0 
O2       O      0.15231    0.27541    0.22459    0 
C1       C      0.13255    0.25       0.25       0 
C2       C      0.08329    0.25       0.25       0 
C4       C      0.06988    0.28196    0.21804    0 
C5       C      0.02483    0.29055    0.20945    0 
C6       C      0.993      0.26594    0.23406    0 
O2       O      0.84769    0.72459    0.22459    0 
C1       C      0.86745    0.75       0.25       0 
C2       C      0.91671    0.75       0.25       0 
C3       C      0.94669    0.72703    0.22703    0 
O2       O      0.15231    0.72459    0.77541    0 
C1       C      0.13255    0.75       0.75       0 
C2       C      0.08329    0.75       0.75       0 
C4       C      0.06988    0.71804    0.78196    0 
C5       C      0.02483    0.70945    0.79055    0 
C6       C      0.993      0.73406    0.76594    0 
O2       O      0.84769    0.27541    0.77541    0 
C1       C      0.86745    0.25       0.75       0 
C2       C      0.91671    0.25       0.75       0 
C3       C      0.94669    0.27297    0.77297    0 
O2       O      0.77541    0.27541    0.84769    0 
C4       C      0.78196    0.28196    0.93012    0 
C5       C      0.79055    0.29055    0.97517    0 
C6       C      0.76594    0.26594    0.007      0 
O2       O      0.22459    0.27541    0.15231    0 
C3       C      0.22703    0.27297    0.05331    0 
O2       O      0.22459    0.72459    0.84769    0 
C4       C      0.21804    0.71804    0.93012    0 
C5       C      0.20945    0.70945    0.97517    0 
C6       C      0.23406    0.73406    0.007      0 
O2       O      0.77541    0.72459    0.15231    0 
C3       C      0.77297    0.72703    0.05331    0 
O2       O      0.77541    0.65231    0.22459    0 
C4       C      0.78196    0.56988    0.21804    0 
C5       C      0.79055    0.52483    0.20945    0 
C6       C      0.76594    0.493      0.23406    0 
O2       O      0.77541    0.34769    0.77541    0 
C3       C      0.77297    0.44669    0.77297    0 
O2       O      0.22459    0.65231    0.77541    0 
C4       C      0.21804    0.56988    0.78196    0 
C5       C      0.20945    0.52483    0.79055    0 
C6       C      0.23406    0.493      0.76594    0 
O2       O      0.22459    0.34769    0.22459    0 
C3       C      0.22703    0.44669    0.22703    0 
O2       O      0.77541    0.15231    0.27541    0 
C4       C      0.78196    0.06988    0.28196    0 
C5       C      0.79055    0.02483    0.29055    0 
C6       C      0.76594    0.993      0.26594    0 
O2       O      0.22459    0.84769    0.27541    0 
C3       C      0.22703    0.94669    0.27297    0 
O2       O      0.22459    0.15231    0.72459    0 
C4       C      0.21804    0.06988    0.71804    0 
C5       C      0.20945    0.02483    0.70945    0 
C6       C      0.23406    0.993      0.73406    0 
O2       O      0.77541    0.84769    0.72459    0 
C3       C      0.77297    0.94669    0.72703    0 
O2       O      0.77541    0.77541    0.65231    0 
C3       C      0.77297    0.77297    0.55331    0 
O2       O      0.77541    0.22459    0.34769    0 
C5       C      0.79055    0.20945    0.47517    0 
C6       C      0.76594    0.23406    0.507      0 
O2       O      0.22459    0.22459    0.65231    0 
C3       C      0.22703    0.22703    0.55331    0 
O2       O      0.22459    0.77541    0.34769    0 
C4       C      0.21804    0.78196    0.43012    0 
C5       C      0.20945    0.79055    0.47517    0 
C6       C      0.23406    0.76594    0.507      0 
O2       O      0.15231    0.77541    0.27541    0 
C3       C      0.05331    0.77297    0.27297    0 
O2       O      0.84769    0.77541    0.72459    0 
C4       C      0.93012    0.78196    0.71804    0 
C5       C      0.97517    0.79055    0.70945    0 
C6       C      0.007      0.76594    0.73406    0 
O2       O      0.15231    0.22459    0.72459    0 
C3       C      0.05331    0.22703    0.72703    0 
O2       O      0.84769    0.22459    0.27541    0 
C4       C      0.93012    0.21804    0.28196    0 
C5       C      0.97517    0.20945    0.29055    0 
C6       C      0.007      0.23406    0.26594    0 
O2       O      0.15231    0.77541    0.72459    0 
C3       C      0.05331    0.77297    0.72703    0 
O2       O      0.84769    0.22459    0.72459    0 
C4       C      0.93012    0.21804    0.71804    0 
C5       C      0.97517    0.20945    0.70945    0 
C6       C      0.007      0.23406    0.73406    0 
O2       O      0.15231    0.22459    0.27541    0 
C3       C      0.05331    0.22703    0.27297    0 
O2       O      0.84769    0.77541    0.27541    0 
C4       C      0.93012    0.78196    0.28196    0 
C5       C      0.97517    0.79055    0.29055    0 
C6       C      0.007      0.76594    0.26594    0 
O2       O      0.77541    0.77541    0.34769    0 
C4       C      0.78196    0.78196    0.43012    0 
C5       C      0.79055    0.79055    0.47517    0 
C6       C      0.76594    0.76594    0.507      0 
O2       O      0.22459    0.77541    0.65231    0 
C3       C      0.22703    0.77297    0.55331    0 
O2       O      0.22459    0.22459    0.34769    0 
C4       C      0.21804    0.21804    0.43012    0 
C5       C      0.20945    0.20945    0.47517    0 
C6       C      0.23406    0.23406    0.507      0 
O2       O      0.77541    0.22459    0.65231    0 
C3       C      0.77297    0.22703    0.55331    0 
O2       O      0.77541    0.15231    0.72459    0 
C4       C      0.78196    0.06988    0.71804    0 
C5       C      0.79055    0.02483    0.70945    0 
C6       C      0.76594    0.993      0.73406    0 
O2       O      0.77541    0.84769    0.27541    0 
C3       C      0.77297    0.94669    0.27297    0 
O2       O      0.22459    0.15231    0.27541    0 
C4       C      0.21804    0.06988    0.28196    0 
C5       C      0.20945    0.02483    0.29055    0 
C6       C      0.23406    0.993      0.26594    0 
O2       O      0.22459    0.84769    0.72459    0 
C3       C      0.22703    0.94669    0.72703    0 
H1       H      0.4084     0.79816    0.79816    0 
H2       H      0.4833     0.81212    0.81212    0 
H3       H      0.56269    0.79428    0.79428    0 
H1       H      0.5916     0.70184    0.70184    0 
H2       H      0.5167     0.68788    0.68788    0 
H3       H      0.43699    0.70579    0.70579    0 
H3       H      0.43731    0.70572    0.29428    0 
H1       H      0.4084     0.79816    0.20184    0 
H2       H      0.4833     0.81212    0.18788    0 
H3       H      0.56269    0.79428    0.20572    0 
H1       H      0.5916     0.70184    0.29816    0 
H2       H      0.5167     0.68788    0.31212    0 
H1       H      0.9084     0.79816    0.29816    0 
H3       H      0.93699    0.70579    0.20579    0 
H1       H      0.9084     0.79816    0.70184    0 
H3       H      0.93731    0.70572    0.79428    0 
H3       H      0.43699    0.29421    0.29421    0 
H2       H      0.5167     0.31212    0.31212    0 
H1       H      0.5916     0.29816    0.29816    0 
H3       H      0.56269    0.20572    0.20572    0 
H2       H      0.4833     0.18788    0.18788    0 
H1       H      0.4084     0.20184    0.20184    0 
H2       H      0.5167     0.31212    0.68788    0 
H1       H      0.5916     0.29816    0.70184    0 
H3       H      0.56269    0.20572    0.79428    0 
H2       H      0.4833     0.18788    0.81212    0 
H1       H      0.4084     0.20184    0.79816    0 
H3       H      0.43731    0.29428    0.70572    0 
H1       H      0.20184    0.5916     0.79816    0 
H2       H      0.18788    0.5167     0.81212    0 
H3       H      0.20572    0.43731    0.79428    0 
H2       H      0.31212    0.4833     0.68788    0 
H1       H      0.29816    0.4084     0.29816    0 
H2       H      0.31212    0.4833     0.31212    0 
H3       H      0.29428    0.56269    0.29428    0 
H1       H      0.20184    0.5916     0.20184    0 
H2       H      0.18788    0.5167     0.18788    0 
H3       H      0.20572    0.43731    0.20572    0 
H2       H      0.68788    0.4833     0.68788    0 
H1       H      0.70184    0.4084     0.70184    0 
H3       H      0.70572    0.56269    0.70572    0 
H1       H      0.79816    0.5916     0.79816    0 
H2       H      0.81212    0.5167     0.81212    0 
H3       H      0.79428    0.43731    0.79428    0 
H1       H      0.70184    0.4084     0.29816    0 
H2       H      0.68788    0.4833     0.31212    0 
H3       H      0.79428    0.43731    0.20572    0 
H2       H      0.81212    0.5167     0.18788    0 
H1       H      0.79816    0.5916     0.20184    0 
H3       H      0.70579    0.56301    0.29421    0 
H3       H      0.93731    0.29428    0.20572    0 
H1       H      0.9084     0.20184    0.29816    0 
H3       H      0.93699    0.29421    0.79421    0 
H1       H      0.9084     0.20184    0.70184    0 
H1       H      0.79816    0.0916     0.29816    0 
H3       H      0.70572    0.06269    0.20572    0 
H1       H      0.79816    0.0916     0.70184    0 
H3       H      0.70579    0.06301    0.79421    0 
H3       H      0.29421    0.06301    0.20579    0 
H1       H      0.20184    0.0916     0.29816    0 
H3       H      0.29428    0.06269    0.79428    0 
H1       H      0.20184    0.0916     0.70184    0 
H3       H      0.06269    0.20572    0.70572    0 
H1       H      0.0916     0.29816    0.79816    0 
H3       H      0.06269    0.20572    0.29428    0 
H1       H      0.0916     0.29816    0.20184    0 
H1       H      0.0916     0.70184    0.79816    0 
H3       H      0.06269    0.79428    0.70572    0 
H3       H      0.06269    0.79428    0.29428    0 
H3       H      0.20572    0.93731    0.70572    0 
H1       H      0.0916     0.70184    0.20184    0 
H1       H      0.29816    0.9084     0.20184    0 
H1       H      0.29816    0.9084     0.79816    0 
H3       H      0.20572    0.93731    0.29428    0 
H3       H      0.79428    0.93731    0.29428    0 
H1       H      0.70184    0.9084     0.20184    0 
H3       H      0.79428    0.93731    0.70572    0 
H1       H      0.70184    0.9084     0.79816    0 
H2       H      0.18788    0.81212    0.4833     0 
H1       H      0.20184    0.79816    0.4084     0 
H3       H      0.20572    0.79428    0.56269    0 
H1       H      0.29816    0.70184    0.5916     0 
H2       H      0.31212    0.68788    0.5167     0 
H3       H      0.29428    0.70572    0.43731    0 
H2       H      0.81212    0.81212    0.4833     0 
H1       H      0.79816    0.79816    0.4084     0 
H3       H      0.70579    0.70579    0.43699    0 
H3       H      0.79428    0.79428    0.56269    0 
H1       H      0.70184    0.70184    0.5916     0 
H2       H      0.68788    0.68788    0.5167     0 
H3       H      0.29421    0.29421    0.43699    0 
H2       H      0.31212    0.31212    0.5167     0 
H1       H      0.29816    0.29816    0.5916     0 
H3       H      0.20572    0.20572    0.56269    0 
H2       H      0.18788    0.18788    0.4833     0 
H1       H      0.20184    0.20184    0.4084     0 
H2       H      0.68788    0.31212    0.5167     0 
H3       H      0.70572    0.29428    0.43731    0 
H1       H      0.70184    0.29816    0.5916     0 
H3       H      0.79428    0.20572    0.56269    0 
H2       H      0.81212    0.18788    0.4833     0 
H3       H      0.79428    0.70572    0.06269    0 
H1       H      0.70184    0.79816    0.0916     0 
H3       H      0.20572    0.29428    0.06269    0 
H1       H      0.29816    0.20184    0.0916     0 
H1       H      0.29816    0.79816    0.0916     0 
H3       H      0.20572    0.70572    0.06269    0 
H1       H      0.79816    0.29816    0.9084     0 
H3       H      0.70579    0.20579    0.93699    0 
H3       H      0.70572    0.79428    0.93731    0 
H1       H      0.79816    0.70184    0.9084     0 
H3       H      0.29421    0.79421    0.93699    0 
H1       H      0.20184    0.70184    0.9084     0 
H1       H      0.20184    0.29816    0.9084     0 
H3       H      0.29428    0.20572    0.93731    0 
H2       H      0.0167     0.68788    0.18788    0 
H2       H      0.0167     0.68788    0.81212    0 
H2       H      0.0167     0.31212    0.18788    0 
H2       H      0.0167     0.31212    0.81212    0 
H2       H      0.18788    0.0167     0.31212    0 
H2       H      0.18788    0.0167     0.68788    0 
H2       H      0.81212    0.0167     0.31212    0 
H2       H      0.81212    0.0167     0.68788    0 
H2       H      0.9833     0.18788    0.31212    0 
H2       H      0.9833     0.18788    0.68788    0 
H2       H      0.9833     0.81212    0.68788    0 
H2       H      0.9833     0.81212    0.31212    0 
H2       H      0.68788    0.9833     0.81212    0 
H2       H      0.68788    0.9833     0.18788    0 
H2       H      0.31212    0.9833     0.81212    0 
H2       H      0.31212    0.9833     0.18788    0 
H2       H      0.68788    0.18788    0.0167     0 
H2       H      0.31212    0.18788    0.0167     0 
H2       H      0.68788    0.81212    0.0167     0 
H2       H      0.31212    0.81212    0.0167     0 
H2       H      0.81212    0.68788    0.9833     0 
H2       H      0.18788    0.68788    0.9833     0 
H2       H      0.18788    0.31212    0.9833     0 
H2       H      0.81212    0.31212    0.9833     0 
C3       C      0.27297    0.55331    0.72703    0 
H3       H      0.29644    0.56608    0.70356    0 
C4       C      0.28196    0.43012    0.71804    0 
H1       H      0.30012    0.40553    0.69988    0 
C4       C      0.78196    0.21804    0.43012    0 
H1       H      0.80012    0.19988    0.40553    0 
C4       C      0.71804    0.21804    0.06988    0 
H1       H      0.69988    0.19988    0.09447    0 
C3       C      0.77297    0.27297    0.05331    0 
H3       H      0.79644    0.29644    0.06608    0 


