data_MIL-88B-dry

_audit_creation_method RASPA-1.0
_audit_creation_date 2011-3-9
_audit_author_name 'Christian Serre'

_citation_author_name        'C. Serre, C. Mellot-Draznieks, S. Surble, N. Audebrand, Y. Filinchuk, and F. Ferey'
_citation_title              'Role of solvent-host interactions that lead to very large swelling of hybrid frameworks'
_citation_journal_abbrev     'Science'
_citation_journal_volume     315
_citation_journal_number     5820
_citation_page_first         1828
_citation_page_last          1831
_citation_year               2007

_cell_length_a    9.6
_cell_length_b    9.6
_cell_length_c    19.1
_cell_angle_alpha 90
_cell_angle_beta  90
_cell_angle_gamma 120
_cell_volume      1524.43

_symmetry_cell_setting          hexagonal
_symmetry_space_group_name_Hall 'P -6c -2c'
_symmetry_space_group_name_H-M  'P -6 2 c'
_symmetry_Int_Tables_number     190

loop_
_symmetry_equiv_pos_as_xyz
 'x,y,z'
 '-y,x-y,z'
 '-x+y,-x,z'
 'x,y,-z+1/2'
 '-y,x-y,-z+1/2'
 '-x+y,-x,-z+1/2'
 'y,x,-z'
 'x-y,-y,-z'
 '-x,-x+y,-z'
 'y,x,z+1/2'
 'x-y,-y,z+1/2'
 '-x,-x+y,z+1/2'

loop_
_atom_site_label
_atom_site_type_symbol
_atom_site_fract_x
_atom_site_fract_y
_atom_site_fract_z
_atom_site_charge
Cr1      Cr     0.1563     0.711      0.75       0 
O1       O      0.1376     0.3848     0.6767     0 
O2       O      0.0535     0.5629     0.8224     0 
O3       O      0.7753     1.0182     0.75       0 
O4       O      0.3333     0.6667     0.75       0 
C1       C      0.0688     0.4533     0.6481     0 
C2       C      0.5996     0.5802     0.4263     0 
C3       C      0.4687     0.4607     0.4639     0 
C4       C      0.7221     0.7109     0.4634     0 
H1       H      0.3735     0.3562     0.438      0 
H2       H      0.826      0.8031     0.4362     0 


