data_MIL-47

_audit_creation_method RASPA-1.0
_audit_creation_date 2011-3-9
_audit_author_name 'David Dubbeldam'

_citation_author_name        'K. Barthelet, J. Marrot, D. Riou, and G. Ferey'
_citation_title              'A breathing hybrid organic-inorganic solid with very large pores and high magnetic characteristics'
_citation_journal_abbrev     'Ang. Chem. Int. Ed.'
_citation_journal_volume     41
_citation_journal_number     2
_citation_page_first         281
_citation_page_last          284
_citation_year               2002

_cell_length_a    6.8179
_cell_length_b    16.143
_cell_length_c    13.939
_cell_angle_alpha 90
_cell_angle_beta  90
_cell_angle_gamma 90
_cell_volume      1534.15

_symmetry_cell_setting          orthorhombic
_symmetry_space_group_name_Hall '-P 2ac 2n'
_symmetry_space_group_name_H-M  'P n m a'
_symmetry_Int_Tables_number     62

loop_
_symmetry_equiv_pos_as_xyz
 'x,y,z'
 '-x+1/2,-y,z+1/2'
 '-x,y+1/2,-z'
 'x+1/2,-y+1/2,-z+1/2'
 '-x,-y,-z'
 'x+1/2,y,-z+1/2'
 'x,-y+1/2,z'
 '-x+1/2,y+1/2,z+1/2'

loop_
_atom_site_label
_atom_site_type_symbol
_atom_site_fract_x
_atom_site_fract_y
_atom_site_fract_z
_atom_site_charge
V        V      0.2002     0.25       0.73916    1.68
O1       O     -0.0249     0.25       0.6916    -0.6
O2       O      0.3118     0.1632     0.6555    -0.52
O3       O      0.1415     0.1626     0.8335    -0.52
C1       C      0.3225     0.0329     0.5261    -0.15
H1       H      0.2015     0.0554     0.5425     0.12
C2       C      0.6675     0.0323     0.5369    -0.15
H2       H      0.783      0.0548     0.5611     0.12
C3       C      0.4911     0.0649     0.565      0 
C4       C      0.4781     0.1366     0.6333     0.56
