data_MIL-88C-dry

_audit_creation_method RASPA-1.0
_audit_creation_date 2011-3-9
_audit_author_name 'Christian Serre'

_citation_author_name        'C. Serre, C. Mellot-Draznieks, S. Surble, N. Audebrand, Y. Filinchuk, and F. Ferey'
_citation_title              'Role of solvent-host interactions that lead to very large swelling of hybrid frameworks'
_citation_journal_abbrev     'Science'
_citation_journal_volume     315
_citation_journal_number     5820
_citation_page_first         1828
_citation_page_last          1831
_citation_year               2007

_cell_length_a    9.9
_cell_length_b    9.9
_cell_length_c    23.8
_cell_angle_alpha 90
_cell_angle_beta  90
_cell_angle_gamma 120
_cell_volume      2020.12

_symmetry_cell_setting          hexagonal
_symmetry_space_group_name_Hall 'P -6c -2c'
_symmetry_space_group_name_H-M  'P -6 2 c'
_symmetry_Int_Tables_number     190

loop_
_symmetry_equiv_pos_as_xyz
 'x,y,z'
 '-y,x-y,z'
 '-x+y,-x,z'
 'x,y,-z+1/2'
 '-y,x-y,-z+1/2'
 '-x+y,-x,-z+1/2'
 'y,x,-z'
 'x-y,-y,-z'
 '-x,-x+y,-z'
 'y,x,z+1/2'
 'x-y,-y,z+1/2'
 '-x,-x+y,z+1/2'

loop_
_atom_site_label
_atom_site_type_symbol
_atom_site_fract_x
_atom_site_fract_y
_atom_site_fract_z
_atom_site_charge
Fe1      Fe     0.6547     0.1312     0.25       0 
O1       O      0.3898     0.1977     0.1893     0 
O2       O      0.5046     0.0532     0.1906     0 
O3       O      1.0663    -0.2886     0.25       0 
O4       O      0.6667     0.3333     0.25       0 
C1       C      0.4185     0.0978     0.1667     0 
C2       C     -0.6792    -0.0361    -0.1082     0 
C3       C     -0.6003     0.1252    -0.097      0 
C4       C     -0.5822     0.1827    -0.0415     0 
C5       C     -0.6348     0.0811     0.0051     0 
C6       C     -0.7404    -0.1387    -0.0614     0 
H1       H     -0.5507     0.2074    -0.1314     0 
H2       H     -0.5215     0.3074    -0.0349     0 
H3       H     -0.799     -0.2634    -0.0686     0 


