data_MIL-53ht

_audit_creation_method RASPA-1.0
_audit_creation_date 2011-3-9
_audit_author_name '?'

_citation_author_name        'C. Serre, F. Millange, C. Thouvenot, M. Nogues, G. Marsolier, D. Louer, and G. Ferey'
_citation_title              'Very large breathing effect in the first nanoporous chromium(III)-based solids: MIL-53 or Cr-III(OH).{O2C-C6H4-CO2}.{HO2C-C6H4-CO2H}(x).H2Oy'
_citation_journal_abbrev     'J. Am. Chem. Soc.'
_citation_journal_volume     124
_citation_journal_number     45
_citation_page_first         13519
_citation_page_last          13526
_citation_year               2002

_cell_length_a    16.733
_cell_length_b    13.038
_cell_length_c    6.812
_cell_angle_alpha 90
_cell_angle_beta  90
_cell_angle_gamma 90
_cell_volume      1486.14

_symmetry_cell_setting          orthorhombic
_symmetry_space_group_name_Hall '-I 2 2a'
_symmetry_space_group_name_H-M  'I m c m'
_symmetry_Int_Tables_number     74

loop_
_symmetry_equiv_pos_as_xyz
 'x,y,z'
 '-x+1/2,y,-z'
 'x+1/2,-y,-z'
 '-x,-y,z'
 '-x,-y,-z'
 'x+1/2,-y,z'
 '-x+1/2,y,z'
 'x,y,-z'
 'x+1/2,y+1/2,z+1/2'
 '-x,y+1/2,-z+1/2'
 'x,-y+1/2,-z+1/2'
 '-x+1/2,-y+1/2,z+1/2'
 '-x+1/2,-y+1/2,-z+1/2'
 'x,-y+1/2,z+1/2'
 '-x,y+1/2,z+1/2'
 'x+1/2,y+1/2,-z+1/2'

loop_
_atom_site_label
_atom_site_type_symbol
_atom_site_fract_x
_atom_site_fract_y
_atom_site_fract_z
Cr1      Cr     0.25000    0.75000    0.25000 
O1       O      0.25000    0.686      0.0     
O2       O     -0.168      0.161      0.167   
C3       C     -0.033      0.032      0.179   
C2       C     -0.066      0.063      0.0     
C1       C     -0.137      0.132      0.0     
Ho1      H      0.25000    0.611      0.0     
H1       H     -0.060      0.058      0.329   


