data_MIL-88D-dry

_audit_creation_method RASPA-1.0
_audit_creation_date 2011-3-9
_audit_author_name 'Christian Serre'

_citation_author_name        'C. Serre, C. Mellot-Draznieks, S. Surble, N. Audebrand, Y. Filinchuk, and F. Ferey'
_citation_title              'Role of solvent-host interactions that lead to very large swelling of hybrid frameworks'
_citation_journal_abbrev     'Science'
_citation_journal_volume     315
_citation_journal_number     5820
_citation_page_first         1828
_citation_page_last          1831
_citation_year               2007

_cell_length_a    10.1
_cell_length_b    10.1
_cell_length_c    27.8
_cell_angle_alpha 90
_cell_angle_beta  90
_cell_angle_gamma 120
_cell_volume      2455.94

_symmetry_cell_setting          hexagonal
_symmetry_space_group_name_Hall 'P -6c -2c'
_symmetry_space_group_name_H-M  'P -6 2 c'
_symmetry_Int_Tables_number     190

loop_
_symmetry_equiv_pos_as_xyz
 'x,y,z'
 '-y,x-y,z'
 '-x+y,-x,z'
 'x,y,-z+1/2'
 '-y,x-y,-z+1/2'
 '-x+y,-x,-z+1/2'
 'y,x,-z'
 'x-y,-y,-z'
 '-x,-x+y,-z'
 'y,x,z+1/2'
 'x-y,-y,z+1/2'
 '-x,-x+y,z+1/2'

loop_
_atom_site_label
_atom_site_type_symbol
_atom_site_fract_x
_atom_site_fract_y
_atom_site_fract_z
_atom_site_charge
Cr1      Cr     0.6812     0.1499     0.25       0 
O1       O      1.0479    -0.2673     0.25       0 
O2       O      0.6667     0.3333     0.25       0 
O3       O      0.3943     0.1727     0.1996     0 
O4       O      0.5365     0.0606     0.1997     0 
C1       C      0.4404     0.0895     0.1798     0 
C2       C      0.608      0.644     -0.1291     0 
C3       C      0.5355     0.5057    -0.1031     0 
C4       C      0.5498     0.5041    -0.0529     0 
C5       C      0.6383     0.6404    -0.027      0 
C6       C      0.7193     0.7776    -0.0531     0 
C7       C      0.7035     0.7796    -0.1034     0 
H1       H      0.4604     0.3988    -0.1211     0 
H2       H      0.4884     0.3959    -0.0341     0 
H3       H      0.7888     0.8847    -0.0344     0 
H4       H      0.7603     0.8886    -0.1218     0 


