data_MIL-88C-open

_audit_creation_method RASPA-1.0
_audit_creation_date 2011-3-9
_audit_author_name 'Christian Serre'

_citation_author_name        'C. Serre, C. Mellot-Draznieks, S. Surble, N. Audebrand, Y. Filinchuk, and F. Ferey'
_citation_title              'Role of solvent-host interactions that lead to very large swelling of hybrid frameworks'
_citation_journal_abbrev     'Science'
_citation_journal_volume     315
_citation_journal_number     5820
_citation_page_first         1828
_citation_page_last          1831
_citation_year               2007

_cell_length_a    18.7529
_cell_length_b    18.7529
_cell_length_c    18.7425
_cell_angle_alpha 90
_cell_angle_beta  90
_cell_angle_gamma 120
_cell_volume      5708.15

_symmetry_cell_setting          hexagonal
_symmetry_space_group_name_Hall 'P -6c -2c'
_symmetry_space_group_name_H-M  'P -6 2 c'
_symmetry_Int_Tables_number     190

loop_
_symmetry_equiv_pos_as_xyz
 'x,y,z'
 '-y,x-y,z'
 '-x+y,-x,z'
 'x,y,-z+1/2'
 '-y,x-y,-z+1/2'
 '-x+y,-x,-z+1/2'
 'y,x,-z'
 'x-y,-y,-z'
 '-x,-x+y,-z'
 'y,x,z+1/2'
 'x-y,-y,z+1/2'
 '-x,-x+y,z+1/2'

loop_
_atom_site_label
_atom_site_type_symbol
_atom_site_fract_x
_atom_site_fract_y
_atom_site_fract_z
_atom_site_charge
Fe       Fe     0.727148   0.273157   0.25       0
O1       O      0.6666667  0.3333333  0.25       0
O2       O      0.5398649  0.1986803  0.1776783  0
O3       O      0.7854662 -0.4285256  0.25       0
O4       O      0.6592388  0.1989131  0.17766    0
C1       C      0.5861303  0.1718878  0.1553031  0
C2       C     -0.5499553 -0.1004621 -0.1052727  0
C3       C     -0.5098934 -0.0203842 -0.1335814  0
C4       C     -0.4751736  0.0490479 -0.0891543  0
C5       C     -0.4795757  0.0401884 -0.0147449  0
C6       C     -0.5547393 -0.1100841 -0.0306166  0
H1       H     -0.5054265 -0.0114559 -0.1905662  0
H2       H     -0.4448668  0.1097672 -0.1131219  0
H3       H     -0.5855009 -0.1715263 -0.0080287  0


