data_MOF-200

_audit_creation_method RASPA-1.0
_audit_creation_date 2011-3-8
_audit_author_name 'Ozgur Yazaydin'

_citation_author_name        'H. Furukawa, N. Ko, Y.B. Go, N. Aratani, S.B. Choi, E. Choi, A.O. Yazaydin, R.Q. Snurr, M. Oâ€™Keeffe, J. Kim, and O.M. Yaghi'
_citation_title              'Ultrahigh Porosity in Metal-Organic Frameworks'
_citation_journal_abbrev     'Science'
_citation_journal_volume     329
_citation_journal_number     5990
_citation_page_first         424
_citation_page_last          428
_citation_year               2010

_cell_length_a    52.022
_cell_length_b    52.022
_cell_length_c    42.316
_cell_angle_alpha 90
_cell_angle_beta  90
_cell_angle_gamma 120
_cell_volume      99176.6

_symmetry_cell_setting          triclinic
_symmetry_space_group_name_Hall 'P 1'
_symmetry_space_group_name_H-M  'P 1'
_symmetry_Int_Tables_number     1

_symmetry_equiv_pos_as_xyz 'x,y,z'

loop_
_atom_site_label
_atom_site_type_symbol
_atom_site_fract_x
_atom_site_fract_y
_atom_site_fract_z
_atom_site_charge
Zn1      Zn     0.207964   0.356707   0.257988   1.225 
Zn1      Zn     0.147416   0.307032   0.287057   1.225 
O2       O      0.176541   0.32442    0.32146   -0.603 
O2       O      0.21832    0.356989   0.302949  -0.603 
O2       O      0.347569   0.233879   0.731789  -0.603 
O2       O      0.31443    0.19838    0.700009  -0.603 
O2       O      0.305299   0.6072     0.704601  -0.603 
O2       O      0.352899   0.62476    0.7098    -0.603 
O2       O      0.22039    0.398621   0.24841   -0.603 
O2       O      0.12827    0.265871   0.2756    -0.603 
C10      C      0.284311   0.39102    0.547079   0.051 
C11      C      0.289791   0.37105    0.563371  -0.196 
H4       H      0.286799   0.353799   0.5535     0.136 
C10      C      0.299789   0.376879   0.594421   0.051 
C11      C      0.30431    0.40268    0.60919   -0.196 
H4       H      0.311001   0.4066     0.63       0.136 
C10      C      0.29883    0.42265    0.592901   0.051 
C11      C      0.288829   0.416819   0.561849  -0.196 
H4       H      0.285199   0.430199   0.5509     0.136 
C6       C      0.249569   0.371219   0.452089   0.036 
C7       C      0.2417     0.348199   0.473511  -0.143 
H3       H      0.229099   0.3287     0.467301   0.132 
C8       C      0.25263    0.35439    0.504199  -0.167 
H4       H      0.2474     0.339001   0.518499   0.136 
C9       C      0.27143    0.38358    0.513501   0.067 
C8       C      0.279291   0.40658    0.49209   -0.167 
H4       H      0.291899   0.4261     0.498301   0.136 
C7       C      0.26837    0.40041    0.461381  -0.143 
H3       H      0.273599   0.415801   0.4471     0.132 
C2       C      0.21481    0.35098    0.35695    0.076 
C3       C      0.197449   0.33527    0.38269   -0.174 
H1       H      0.1779     0.3204     0.379601   0.15  
C4       C      0.209331   0.341871   0.413     -0.154 
H2       H      0.1977     0.331401   0.430199   0.138 
C5       C      0.238561   0.364181   0.417561   0.055 
C4       C      0.25592    0.379889   0.391821  -0.154 
H2       H      0.2755     0.394801   0.3949     0.138 
C3       C      0.24405    0.37329    0.361511  -0.174 
H1       H      0.2557     0.3838     0.3443     0.15  
C1       C      0.200201   0.34619    0.324799   0.56  
C9       C      0.30605    0.35645    0.61265    0.067 
C8       C      0.29349    0.327821   0.6006    -0.167 
H4       H      0.2827     0.323      0.5819     0.136 
C7       C      0.297091   0.306461   0.616521  -0.143 
H3       H      0.2887     0.287299   0.6085     0.132 
C6       C      0.31324    0.313719   0.644489   0.036 
C7       C      0.3258     0.34235    0.656539  -0.143 
H3       H      0.3366     0.3472     0.6753     0.132 
C8       C      0.3222     0.363719   0.640621  -0.167 
H4       H      0.330601   0.382901   0.6487     0.136 
C5       C      0.317121   0.288411   0.658519   0.055 
C4       C      0.304349   0.25865    0.650269  -0.154 
H2       H      0.292101   0.251401   0.6326     0.138 
C3       C      0.30987    0.23965    0.66839   -0.174 
H1       H      0.3013     0.2197     0.662901   0.15  
C2       C      0.32816    0.2504     0.69477    0.076 
C3       C      0.340931   0.280169   0.70302   -0.174 
H1       H      0.3532     0.287401   0.720699   0.15  
C4       C      0.33541    0.29917    0.684899  -0.154 
H2       H      0.344001   0.3191     0.690401   0.138 
C1       C      0.32991    0.225      0.710051   0.56  
C9       C      0.3053     0.452309   0.6086     0.067 
C8       C      0.3289     0.467101   0.6294    -0.167 
H4       H      0.341601   0.459701   0.633401   0.136 
C7       C      0.3336     0.4929     0.6443    -0.143 
H3       H      0.3494     0.502799   0.6582     0.132 
C6       C      0.314601   0.5039     0.638399   0.036 
C7       C      0.290999   0.4891     0.617499  -0.143 
H3       H      0.278301   0.4965     0.613501   0.132 
C8       C      0.2864     0.463301   0.602599  -0.167 
H4       H      0.270601   0.453501   0.588699   0.136 
C5       C      0.31676    0.52858    0.65497    0.055 
C4       C      0.341141   0.544271   0.67465   -0.154 
H2       H      0.3543     0.537399   0.6781     0.138 
C3       C      0.34581    0.570241   0.689139  -0.174 
H1       H      0.3621     0.5807     0.702299   0.15  
C2       C      0.32612    0.580531   0.683949   0.076 
C3       C      0.30175    0.56484    0.664269  -0.174 
H1       H      0.2886     0.571699   0.6608     0.15  
C4       C      0.29707    0.53886    0.64979   -0.154 
H2       H      0.280801   0.528401   0.636601   0.138 
C1       C      0.330399   0.606199   0.7044     0.56  
C3       C      0.251539   0.459219   0.247441  -0.174 
H1       H      0.261899   0.449      0.2456     0.15  
C4       C      0.26733    0.48989    0.247391  -0.154 
H2       H      0.2879     0.499601   0.2456     0.138 
C7       C      0.300491   0.5575     0.245     -0.143 
H3       H      0.3106     0.5476     0.2399     0.132 
C8       C      0.31591    0.587869   0.247299  -0.167 
H4       H      0.336499   0.598      0.2469     0.136 
C3       C      0.107      0.2063     0.222809  -0.174 
H1       H      0.1154     0.216699   0.204301   0.15  
C4       C      0.0909008  0.175201   0.22279   -0.154 
H2       H      0.0875993  0.165099   0.2038     0.138 
C7       C      0.0334394  0.109499   0.2579    -0.143 
H3       H      0.0232005  0.119501   0.262      0.132 
C8       C      0.0189996  0.0794009  0.2598    -0.167 
H4       H      0.999799   0.0689997  0.267901   0.136 
Zn1      Zn     0.643294   0.851256   0.257988   1.225 
Zn1      Zn     0.692969   0.840384   0.287057   1.225 
O2       O      0.675579   0.852119   0.32146   -0.603 
O2       O      0.64301    0.861331   0.302949  -0.603 
O2       O      0.76612    0.11369    0.731789  -0.603 
O2       O      0.80162    0.116049   0.700009  -0.603 
O2       O      0.392801   0.698101   0.704601  -0.603 
O2       O      0.37524    0.728139   0.7098    -0.603 
O2       O      0.60138    0.82177    0.24841   -0.603 
O2       O      0.73413    0.862401   0.2756    -0.603 
C10      C      0.60898    0.893289   0.547079   0.051 
C11      C      0.62895    0.91874    0.563371  -0.196 
H4       H      0.646201   0.933001   0.5535     0.136 
C10      C      0.623119   0.92291    0.594421   0.051 
C11      C      0.597321   0.901631   0.60919   -0.196 
H4       H      0.5934     0.904401   0.63       0.136 
C10      C      0.57735    0.87618    0.592901   0.051 
C11      C      0.583179   0.87201    0.561849  -0.196 
H4       H      0.5698     0.855      0.5509     0.136 
C6       C      0.62878    0.878351   0.452089   0.036 
C7       C      0.6518     0.8935     0.473511  -0.143 
H3       H      0.671301   0.900401   0.467301   0.132 
C8       C      0.645609   0.898239   0.504199  -0.167 
H4       H      0.661001   0.908401   0.518499   0.136 
C9       C      0.616419   0.887849   0.513501   0.067 
C8       C      0.59342    0.872711   0.49209   -0.167 
H4       H      0.573899   0.865799   0.498301   0.136 
C7       C      0.599591   0.867961   0.461381  -0.143 
H3       H      0.584199   0.857799   0.4471     0.132 
C2       C      0.649019   0.86383    0.35695    0.076 
C3       C      0.66473    0.862181   0.38269   -0.174 
H1       H      0.6796     0.8575     0.379601   0.15  
C4       C      0.658129   0.867459   0.413     -0.154 
H2       H      0.668601   0.866301   0.430199   0.138 
C5       C      0.635819   0.87438    0.417561   0.055 
C4       C      0.620109   0.876029   0.391821  -0.154 
H2       H      0.605199   0.880699   0.3949     0.138 
C3       C      0.626711   0.87076    0.361511  -0.174 
H1       H      0.616201   0.871901   0.3443     0.15  
C1       C      0.653809   0.85401    0.324799   0.56  
C9       C      0.643549   0.949599   0.61265    0.067 
C8       C      0.67218    0.965669   0.6006    -0.167 
H4       H      0.677      0.959701   0.5819     0.136 
C7       C      0.69354    0.990629   0.616521  -0.143 
H3       H      0.712701   0.0014006  0.6085     0.132 
C6       C      0.686279   0.999519   0.644489   0.036 
C7       C      0.657651   0.983451   0.656539  -0.143 
H3       H      0.6528     0.9894     0.6753     0.132 
C8       C      0.636279   0.95848    0.640621  -0.167 
H4       H      0.617101   0.947699   0.6487     0.136 
C5       C      0.711591   0.028711   0.658519   0.055 
C4       C      0.74135    0.0457001  0.650269  -0.154 
H2       H      0.748599   0.0406993  0.6326     0.138 
C3       C      0.76035    0.0702205  0.66839   -0.174 
H1       H      0.780301   0.0816006  0.662901   0.15  
C2       C      0.749601   0.0777606  0.69477    0.076 
C3       C      0.719831   0.0607604  0.70302   -0.174 
H1       H      0.7126     0.065799   0.720699   0.15  
C4       C      0.700829   0.03624    0.684899  -0.154 
H2       H      0.6809     0.0248999  0.690401   0.138 
C1       C      0.774999   0.104909   0.710051   0.56  
C9       C      0.54769    0.852989   0.6086     0.067 
C8       C      0.532899   0.861799   0.6294    -0.167 
H4       H      0.5403     0.8819     0.633401   0.136 
C7       C      0.507099   0.840699   0.6443    -0.143 
H3       H      0.497199   0.846599   0.6582     0.132 
C6       C      0.496101   0.810701   0.638399   0.036 
C7       C      0.5109     0.8019     0.617499  -0.143 
H3       H      0.5035     0.781799   0.613501   0.132 
C8       C      0.536701   0.8231     0.602599  -0.167 
H4       H      0.546499   0.8171     0.588699   0.136 
C5       C      0.471421   0.78818    0.65497    0.055 
C4       C      0.45573    0.79687    0.67465   -0.154 
H2       H      0.4626     0.8169     0.6781     0.138 
C3       C      0.42976    0.775571   0.689139  -0.174 
H1       H      0.419299   0.781399   0.702299   0.15  
C2       C      0.419469   0.74559    0.683949   0.076 
C3       C      0.435159   0.736909   0.664269  -0.174 
H1       H      0.428299   0.716899   0.6608     0.15  
C4       C      0.46114    0.758211   0.64979   -0.154 
H2       H      0.4716     0.7524     0.636601   0.138 
C1       C      0.3938     0.724199   0.7044     0.56  
C3       C      0.54078    0.79232    0.247441  -0.174 
H1       H      0.551001   0.812901   0.2456     0.15  
C4       C      0.510111   0.77744    0.247391  -0.154 
H2       H      0.500399   0.7883     0.2456     0.138 
C7       C      0.4425     0.742991   0.245     -0.143 
H3       H      0.452401   0.763001   0.2399     0.132 
C8       C      0.41213    0.728039   0.247299  -0.167 
H4       H      0.402      0.7385     0.2469     0.136 
C3       C      0.793701   0.900701   0.222809  -0.174 
H1       H      0.783299   0.898701   0.204301   0.15  
C4       C      0.824801   0.915701   0.22279   -0.154 
H2       H      0.834899   0.9225     0.2038     0.138 
C7       C      0.8905     0.92394    0.2579    -0.143 
H3       H      0.880499   0.903699   0.262      0.132 
C8       C      0.9206     0.9396     0.2598    -0.167 
H4       H      0.930999   0.930799   0.267901   0.136 
Zn1      Zn     0.148742   0.792036   0.257988   1.225 
Zn1      Zn     0.159616   0.852583   0.287057   1.225 
O2       O      0.14788    0.823459   0.32146   -0.603 
O2       O      0.138669   0.781679   0.302949  -0.603 
O2       O      0.886311   0.65243    0.731789  -0.603 
O2       O      0.883951   0.685571   0.700009  -0.603 
O2       O      0.3019     0.6947     0.704601  -0.603 
O2       O      0.27186    0.6471     0.7098    -0.603 
O2       O      0.178229   0.77961    0.24841   -0.603 
O2       O      0.137601   0.87173    0.2756    -0.603 
C10      C      0.10671    0.715689   0.547079   0.051 
C11      C      0.0812588  0.710209   0.563371  -0.196 
H4       H      0.067      0.713201   0.5535     0.136 
C10      C      0.0770895  0.70021    0.594421   0.051 
C11      C      0.0983699  0.69569    0.60919   -0.196 
H4       H      0.0955997  0.689      0.63       0.136 
C10      C      0.12382    0.701171   0.592901   0.051 
C11      C      0.127991   0.71117    0.561849  -0.196 
H4       H      0.144999   0.714799   0.5509     0.136 
C6       C      0.12165    0.750431   0.452089   0.036 
C7       C      0.1065     0.7583     0.473511  -0.143 
H3       H      0.0996001  0.770901   0.467301   0.132 
C8       C      0.10176    0.74737    0.504199  -0.167 
H4       H      0.0915991  0.7526     0.518499   0.136 
C9       C      0.112149   0.72857    0.513501   0.067 
C8       C      0.12729    0.72071    0.49209   -0.167 
H4       H      0.134201   0.7081     0.498301   0.136 
C7       C      0.132041   0.731631   0.461381  -0.143 
H3       H      0.142199   0.726399   0.4471     0.132 
C2       C      0.136171   0.785191   0.35695    0.076 
C3       C      0.137819   0.80255    0.38269   -0.174 
H1       H      0.142501   0.822101   0.379601   0.15  
C4       C      0.132541   0.790671   0.413     -0.154 
H2       H      0.133699   0.8023     0.430199   0.138 
C5       C      0.12562    0.76144    0.417561   0.055 
C4       C      0.12397    0.744081   0.391821  -0.154 
H2       H      0.1193     0.724499   0.3949     0.138 
C3       C      0.129239   0.755949   0.361511  -0.174 
H1       H      0.1281     0.7443     0.3443     0.15  
C1       C      0.14599    0.7998     0.324799   0.56  
C9       C      0.0504005  0.69395    0.61265    0.067 
C8       C      0.0343308  0.706511   0.6006    -0.167 
H4       H      0.0403004  0.717301   0.5819     0.136 
C7       C      0.0093713  0.702911   0.616521  -0.143 
H3       H      0.9986     0.711301   0.6085     0.132 
C6       C      0.0004812  0.686761   0.644489   0.036 
C7       C      0.016549   0.6742     0.656539  -0.143 
H3       H      0.0105988  0.663399   0.6753     0.132 
C8       C      0.0415201  0.6778     0.640621  -0.167 
H4       H      0.0523007  0.669401   0.6487     0.136 
C5       C      0.971291   0.682881   0.658519   0.055 
C4       C      0.954299   0.69565    0.650269  -0.154 
H2       H      0.9593     0.707901   0.6326     0.138 
C3       C      0.929779   0.69013    0.66839   -0.174 
H1       H      0.9184     0.6987     0.662901   0.15  
C2       C      0.922239   0.67184    0.69477    0.076 
C3       C      0.939241   0.659071   0.70302   -0.174 
H1       H      0.9342     0.646801   0.720699   0.15  
C4       C      0.963761   0.664591   0.684899  -0.154 
H2       H      0.9751     0.656001   0.690401   0.138 
C1       C      0.89509    0.670089   0.710051   0.56  
C9       C      0.14701    0.6947     0.6086     0.067 
C8       C      0.1382     0.671099   0.6294    -0.167 
H4       H      0.118101   0.6584     0.633401   0.136 
C7       C      0.1593     0.6664     0.6443    -0.143 
H3       H      0.1534     0.650601   0.6582     0.132 
C6       C      0.1893     0.6854     0.638399   0.036 
C7       C      0.1981     0.708999   0.617499  -0.143 
H3       H      0.218201   0.7217     0.613501   0.132 
C8       C      0.176899   0.713601   0.602599  -0.167 
H4       H      0.1829     0.7294     0.588699   0.136 
C5       C      0.211819   0.68324    0.65497    0.055 
C4       C      0.20313    0.65886    0.67465   -0.154 
H2       H      0.183099   0.6457     0.6781     0.138 
C3       C      0.224431   0.65419    0.689139  -0.174 
H1       H      0.2186     0.6379     0.702299   0.15  
C2       C      0.25441    0.67388    0.683949   0.076 
C3       C      0.26309    0.69825    0.664269  -0.174 
H1       H      0.2831     0.711401   0.6608     0.15  
C4       C      0.241791   0.702931   0.64979   -0.154 
H2       H      0.2476     0.719201   0.636601   0.138 
C1       C      0.2758     0.669601   0.7044     0.56  
C3       C      0.207679   0.74846    0.247441  -0.174 
H1       H      0.187101   0.738101   0.2456     0.15  
C4       C      0.222559   0.732669   0.247391  -0.154 
H2       H      0.2117     0.7121     0.2456     0.138 
C7       C      0.25701    0.69951    0.245     -0.143 
H3       H      0.236999   0.6894     0.2399     0.132 
C8       C      0.27196    0.68409    0.247299  -0.167 
H4       H      0.261501   0.663501   0.2469     0.136 
C3       C      0.0993011  0.893001   0.222809  -0.174 
H1       H      0.1013     0.884599   0.204301   0.15  
C4       C      0.0843007  0.9091     0.22279   -0.154 
H2       H      0.0775008  0.9124     0.2038     0.138 
C7       C      0.0760597  0.96656    0.2579    -0.143 
H3       H      0.096301   0.976801   0.262      0.132 
C8       C      0.0603995  0.981      0.2598    -0.167 
H4       H      0.0691995  0.0001998  0.267901   0.136 
Zn1      Zn     0.643294   0.792036   0.242012   1.225 
Zn1      Zn     0.692967   0.852583   0.212943   1.225 
Zn1      Zn     0.295759   0.634839   0.7281     1.225 
O2       O      0.67558    0.823459   0.17854   -0.603 
O2       O      0.64301    0.781679   0.197051  -0.603 
O2       O      0.766119   0.65243    0.768211  -0.603 
O2       O      0.80162    0.685571   0.799991  -0.603 
O2       O      0.37146    0.66899    0.809079  -0.603 
O2       O      0.38845    0.6609     0.766549  -0.603 
O2       O      0.601381   0.77961    0.25159   -0.603 
O2       O      0.734129   0.87173    0.2244    -0.603 
C10      C      0.608979   0.715689   0.952921   0.051 
C11      C      0.62895    0.710209   0.936629  -0.196 
H4       H      0.646201   0.713201   0.9465     0.136 
C10      C      0.62312    0.70021    0.905579   0.051 
C11      C      0.59732    0.69569    0.89081   -0.196 
H4       H      0.593401   0.689      0.87       0.136 
C10      C      0.577351   0.701171   0.907099   0.051 
C11      C      0.583179   0.71117    0.938151  -0.196 
H4       H      0.5698     0.714799   0.9491     0.136 
C6       C      0.628781   0.750431   0.047911   0.036 
C7       C      0.6518     0.7583     0.0264912 -0.143 
H3       H      0.6713     0.770901   0.0326992  0.132 
C8       C      0.64561    0.74737    0.995801  -0.167 
H4       H      0.661001   0.7526     0.981501   0.136 
C9       C      0.616421   0.72857    0.986499   0.067 
C8       C      0.59342    0.72071    0.00790954 -0.167
H4       H      0.573899   0.7081     0.00169912  0.136
C7       C      0.59959    0.731631   0.038619  -0.143 
H3       H      0.5842     0.726399   0.0528996  0.132 
C2       C      0.64902    0.785191   0.14305    0.076 
C3       C      0.664731   0.80255    0.11731   -0.174 
H1       H      0.6796     0.822101   0.120399   0.15  
C4       C      0.65813    0.790671   0.0870002 -0.154 
H2       H      0.6686     0.8023     0.069801   0.138 
C5       C      0.63582    0.76144    0.0824393  0.055 
C4       C      0.62011    0.744081   0.108179  -0.154 
H2       H      0.605199   0.724499   0.1051     0.138 
C3       C      0.62671    0.755949   0.138489  -0.174 
H1       H      0.616201   0.7443     0.1557     0.15  
C1       C      0.65381    0.7998     0.175201   0.56  
C9       C      0.64355    0.69395    0.88735    0.067 
C8       C      0.67218    0.706511   0.8994    -0.167 
H4       H      0.677      0.717301   0.9181     0.136 
C7       C      0.69354    0.702911   0.883479  -0.143 
H3       H      0.712701   0.711301   0.8915     0.132 
C6       C      0.68628    0.686761   0.855511   0.036 
C7       C      0.657651   0.6742     0.843461  -0.143 
H3       H      0.6528     0.663399   0.8247     0.132 
C8       C      0.63628    0.6778     0.859379  -0.167 
H4       H      0.6171     0.669401   0.8513     0.136 
C5       C      0.71159    0.682881   0.841481   0.055 
C4       C      0.741351   0.69565    0.849731  -0.154 
H2       H      0.748601   0.707901   0.8674     0.138 
C3       C      0.760351   0.69013    0.83161   -0.174 
H1       H      0.7803     0.6987     0.837099   0.15  
C2       C      0.749601   0.67184    0.80523    0.076 
C3       C      0.71983    0.659071   0.79698   -0.174 
H1       H      0.712601   0.646801   0.779301   0.15  
C4       C      0.70083    0.664591   0.815101  -0.154 
H2       H      0.680901   0.656001   0.809599   0.138 
C1       C      0.774999   0.670089   0.789949   0.56  
C9       C      0.54769    0.6947     0.8914     0.067 
C8       C      0.532899   0.671099   0.8706    -0.167 
H4       H      0.540299   0.6584     0.866599   0.136 
C7       C      0.507099   0.6664     0.8557    -0.143 
H3       H      0.497201   0.650601   0.8418     0.132 
C6       C      0.496101   0.6854     0.861601   0.036 
C7       C      0.510899   0.708999   0.882501  -0.143 
H3       H      0.503499   0.7217     0.886499   0.132 
C8       C      0.536701   0.713601   0.897401  -0.167 
H4       H      0.5465     0.7294     0.911301   0.136 
C5       C      0.471421   0.68324    0.84503    0.055 
C4       C      0.45573    0.65886    0.82535   -0.154 
H2       H      0.4626     0.6457     0.8219     0.138 
C3       C      0.429759   0.65419    0.810861  -0.174 
H1       H      0.4193     0.6379     0.797701   0.15  
C2       C      0.419471   0.67388    0.816051   0.076 
C3       C      0.43516    0.69825    0.835731  -0.174 
H1       H      0.428301   0.711401   0.8392     0.15  
C4       C      0.46114    0.702931   0.85021   -0.154 
H2       H      0.471601   0.719201   0.863399   0.138 
C1       C      0.3938     0.669601   0.7956     0.56  
C3       C      0.540781   0.74846    0.252559  -0.174 
H1       H      0.551      0.738101   0.2544     0.15  
C4       C      0.51011    0.732669   0.252609  -0.154 
H2       H      0.500401   0.7121     0.2544     0.138 
C7       C      0.442501   0.69951    0.255     -0.143 
H3       H      0.452401   0.6894     0.2601     0.132 
C8       C      0.412131   0.68409    0.252701  -0.167 
H4       H      0.402      0.663501   0.2531     0.136 
C3       C      0.7937     0.893001   0.277191  -0.174 
H1       H      0.7833     0.884599   0.295699   0.15  
C4       C      0.824799   0.9091     0.27721   -0.154 
H2       H      0.8349     0.9124     0.2962     0.138 
C7       C      0.8905     0.96656    0.2421    -0.143 
H3       H      0.8805     0.976801   0.238      0.132 
C8       C      0.920601   0.981      0.2402    -0.167 
H4       H      0.931      0.0001998  0.232099   0.136 
Zn1      Zn     0.148743   0.356707   0.242012   1.225 
Zn1      Zn     0.159615   0.307032   0.212943   1.225 
Zn1      Zn     0.33908    0.70424    0.7281     1.225 
O2       O      0.14788    0.32442    0.17854   -0.603 
O2       O      0.138669   0.356989   0.197051  -0.603 
O2       O      0.88631    0.233879   0.768211  -0.603 
O2       O      0.88395    0.19838    0.799991  -0.603 
O2       O      0.297531   0.62854    0.809079  -0.603 
O2       O      0.272451   0.61155    0.766549  -0.603 
O2       O      0.178231   0.398621   0.25159   -0.603 
O2       O      0.137601   0.265871   0.2244    -0.603 
C10      C      0.106709   0.39102    0.952921   0.051 
C11      C      0.0812597  0.37105    0.936629  -0.196 
H4       H      0.067      0.353799   0.9465     0.136 
C10      C      0.0770905  0.376879   0.905579   0.051 
C11      C      0.0983702  0.40268    0.89081   -0.196 
H4       H      0.0955995  0.4066     0.87       0.136 
C10      C      0.12382    0.42265    0.907099   0.051 
C11      C      0.12799    0.416819   0.938151  -0.196 
H4       H      0.145      0.430199   0.9491     0.136 
C6       C      0.12165    0.371219   0.047911   0.036 
C7       C      0.106499   0.348199   0.0264912 -0.143 
H3       H      0.0996003  0.3287     0.0326992  0.132 
C8       C      0.101759   0.35439    0.995801  -0.167 
H4       H      0.0916008  0.339001   0.981501   0.136 
C9       C      0.112151   0.38358    0.986499   0.067 
C8       C      0.12729    0.40658    0.00790954 -0.167
H4       H      0.1342     0.4261     0.00169912  0.136
C7       C      0.132039   0.40041    0.038619  -0.143 
H3       H      0.142201   0.415801   0.0528996  0.132 
C2       C      0.13617    0.35098    0.14305    0.076 
C3       C      0.137821   0.33527    0.11731   -0.174 
H1       H      0.1425     0.3204     0.120399   0.15  
C4       C      0.13254    0.341871   0.0870002 -0.154 
H2       H      0.133701   0.331401   0.069801   0.138 
C5       C      0.12562    0.364181   0.0824393  0.055 
C4       C      0.123969   0.379889   0.108179  -0.154 
H2       H      0.119301   0.394801   0.1051     0.138 
C3       C      0.12924    0.37329    0.138489  -0.174 
H1       H      0.1281     0.3838     0.1557     0.15  
C1       C      0.145989   0.34619    0.175201   0.56  
C9       C      0.0504     0.35645    0.88735    0.067 
C8       C      0.0343305  0.327821   0.8994    -0.167 
H4       H      0.0402992  0.323      0.9181     0.136 
C7       C      0.0093703  0.306461   0.883479  -0.143 
H3       H      0.998599   0.287299   0.8915     0.132 
C6       C      0.0004797  0.313719   0.855511   0.036 
C7       C      0.0165503  0.34235    0.843461  -0.143 
H3       H      0.0105999  0.3472     0.8247     0.132 
C8       C      0.0415188  0.363719   0.859379  -0.167 
H4       H      0.0522998  0.382901   0.8513     0.136 
C5       C      0.97129    0.288411   0.841481   0.055 
C4       C      0.954301   0.25865    0.849731  -0.154 
H2       H      0.9593     0.251401   0.8674     0.138 
C3       C      0.92978    0.23965    0.83161   -0.174 
H1       H      0.9184     0.2197     0.837099   0.15  
C2       C      0.92224    0.2504     0.80523    0.076 
C3       C      0.939239   0.280169   0.79698   -0.174 
H1       H      0.934201   0.287401   0.779301   0.15  
C4       C      0.96376    0.29917    0.815101  -0.154 
H2       H      0.975099   0.3191     0.809599   0.138 
C1       C      0.89509    0.225      0.789949   0.56  
C9       C      0.147009   0.452309   0.8914     0.067 
C8       C      0.1382     0.467101   0.8706    -0.167 
H4       H      0.118099   0.459701   0.866599   0.136 
C7       C      0.1593     0.4929     0.8557    -0.143 
H3       H      0.153399   0.502799   0.8418     0.132 
C6       C      0.1893     0.5039     0.861601   0.036 
C7       C      0.1981     0.4891     0.882501  -0.143 
H3       H      0.218199   0.4965     0.886499   0.132 
C8       C      0.1769     0.463301   0.897401  -0.167 
H4       H      0.1829     0.453501   0.911301   0.136 
C5       C      0.21182    0.52858    0.84503    0.055 
C4       C      0.20313    0.544271   0.82535   -0.154 
H2       H      0.183099   0.537399   0.8219     0.138 
C3       C      0.224431   0.570241   0.810861  -0.174 
H1       H      0.218599   0.5807     0.797701   0.15  
C2       C      0.254411   0.580531   0.816051   0.076 
C3       C      0.26309    0.56484    0.835731  -0.174 
H1       H      0.283099   0.571699   0.8392     0.15  
C4       C      0.24179    0.53886    0.85021   -0.154 
H2       H      0.2476     0.528401   0.863399   0.138 
C1       C      0.275799   0.606199   0.7956     0.56  
C3       C      0.20768    0.459219   0.252559  -0.174 
H1       H      0.1871     0.449      0.2544     0.15  
C4       C      0.22256    0.48989    0.252609  -0.154 
H2       H      0.211701   0.499601   0.2544     0.138 
C7       C      0.257009   0.5575     0.255     -0.143 
H3       H      0.237      0.5476     0.2601     0.132 
C8       C      0.271959   0.587869   0.252701  -0.167 
H4       H      0.2615     0.598      0.2531     0.136 
C3       C      0.0992997  0.2063     0.277191  -0.174 
H1       H      0.101299   0.216699   0.295699   0.15  
C4       C      0.0842997  0.175201   0.27721   -0.154 
H2       H      0.0774997  0.165099   0.2962     0.138 
C7       C      0.0760598  0.109499   0.2421    -0.143 
H3       H      0.0963004  0.119501   0.238      0.132 
C8       C      0.0604013  0.0794009  0.2402    -0.167 
H4       H      0.0692006  0.0689997  0.232099   0.136 
Zn1      Zn     0.207962   0.851256   0.242012   1.225 
Zn1      Zn     0.147415   0.840384   0.212943   1.225 
Zn1      Zn     0.365161   0.66092    0.7281     1.225 
O2       O      0.17654    0.852119   0.17854   -0.603 
O2       O      0.218321   0.861331   0.197051  -0.603 
O2       O      0.34757    0.11369    0.768211  -0.603 
O2       O      0.31443    0.116049   0.799991  -0.603 
O2       O      0.33101    0.702469   0.809079  -0.603 
O2       O      0.339101   0.727551   0.766549  -0.603 
O2       O      0.220391   0.82177    0.25159   -0.603 
O2       O      0.128271   0.862401   0.2244    -0.603 
C10      C      0.284309   0.893289   0.952921   0.051 
C11      C      0.28979    0.91874    0.936629  -0.196 
H4       H      0.286799   0.933001   0.9465     0.136 
C10      C      0.299791   0.92291    0.905579   0.051 
C11      C      0.30431    0.901631   0.89081   -0.196 
H4       H      0.311      0.904401   0.87       0.136 
C10      C      0.29883    0.87618    0.907099   0.051 
C11      C      0.288831   0.87201    0.938151  -0.196 
H4       H      0.285201   0.855      0.9491     0.136 
C6       C      0.249571   0.878351   0.047911   0.036 
C7       C      0.2417     0.8935     0.0264912 -0.143 
H3       H      0.2291     0.900401   0.0326992  0.132 
C8       C      0.25263    0.898239   0.995801  -0.167 
H4       H      0.247399   0.908401   0.981501   0.136 
C9       C      0.27143    0.887849   0.986499   0.067 
C8       C      0.279291   0.872711   0.0079095 -0.167 
H4       H      0.2919     0.865799   0.0016991  0.136 
C7       C      0.26837    0.867961   0.038619  -0.143 
H3       H      0.2736     0.857799   0.0528996  0.132 
C2       C      0.214811   0.86383    0.14305    0.076 
C3       C      0.197451   0.862181   0.11731   -0.174 
H1       H      0.1779     0.8575     0.120399   0.15  
C4       C      0.20933    0.867459   0.0870002 -0.154 
H2       H      0.1977     0.866301   0.069801   0.138 
C5       C      0.238561   0.87438    0.0824393  0.055 
C4       C      0.255921   0.876029   0.108179  -0.154 
H2       H      0.2755     0.880699   0.1051     0.138 
C3       C      0.244049   0.87076    0.138489  -0.174 
H1       H      0.2557     0.871901   0.1557     0.15  
C1       C      0.200201   0.85401    0.175201   0.56  
C9       C      0.30605    0.949599   0.88735    0.067 
C8       C      0.29349    0.965669   0.8994    -0.167 
H4       H      0.282701   0.959701   0.9181     0.136 
C7       C      0.297089   0.990629   0.883479  -0.143 
H3       H      0.2887     0.0014006  0.8915     0.132 
C6       C      0.31324    0.999519   0.855511   0.036 
C7       C      0.3258     0.983451   0.843461  -0.143 
H3       H      0.336599   0.9894     0.8247     0.132 
C8       C      0.322201   0.95848    0.859379  -0.167 
H4       H      0.330599   0.947699   0.8513     0.136 
C5       C      0.31712    0.028711   0.841481   0.055 
C4       C      0.30435    0.0457001  0.849731  -0.154 
H2       H      0.2921     0.0406993  0.8674     0.138 
C3       C      0.309871   0.0702205  0.83161   -0.174 
H1       H      0.3013     0.0816006  0.837099   0.15  
C2       C      0.32816    0.0777606  0.80523    0.076 
C3       C      0.34093    0.0607604  0.79698   -0.174 
H1       H      0.353199   0.065799   0.779301   0.15  
C4       C      0.335411   0.03624    0.815101  -0.154 
H2       H      0.344      0.0248999  0.809599   0.138 
C1       C      0.32991    0.104909   0.789949   0.56  
C9       C      0.3053     0.852989   0.8914     0.067 
C8       C      0.3289     0.861799   0.8706    -0.167 
H4       H      0.3416     0.8819     0.866599   0.136 
C7       C      0.3336     0.840699   0.8557    -0.143 
H3       H      0.3494     0.846599   0.8418     0.132 
C6       C      0.3146     0.810701   0.861601   0.036 
C7       C      0.291      0.8019     0.882501  -0.143 
H3       H      0.278299   0.781799   0.886499   0.132 
C8       C      0.286399   0.8231     0.897401  -0.167 
H4       H      0.270601   0.8171     0.911301   0.136 
C5       C      0.316759   0.78818    0.84503    0.055 
C4       C      0.34114    0.79687    0.82535   -0.154 
H2       H      0.3543     0.8169     0.8219     0.138 
C3       C      0.345811   0.775571   0.810861  -0.174 
H1       H      0.3621     0.781399   0.797701   0.15  
C2       C      0.326121   0.74559    0.816051   0.076 
C3       C      0.30175    0.736909   0.835731  -0.174 
H1       H      0.2886     0.716899   0.8392     0.15  
C4       C      0.297071   0.758211   0.85021   -0.154 
H2       H      0.2808     0.7524     0.863399   0.138 
C1       C      0.3304     0.724199   0.7956     0.56  
C3       C      0.25154    0.79232    0.252559  -0.174 
H1       H      0.2619     0.812901   0.2544     0.15  
C4       C      0.267329   0.77744    0.252609  -0.154 
H2       H      0.287901   0.7883     0.2544     0.138 
C7       C      0.300491   0.742991   0.255     -0.143 
H3       H      0.3106     0.763001   0.2601     0.132 
C8       C      0.315909   0.728039   0.252701  -0.167 
H4       H      0.336501   0.7385     0.2531     0.136 
C3       C      0.106999   0.900701   0.277191  -0.174 
H1       H      0.115401   0.898701   0.295699   0.15  
C4       C      0.0908999  0.915701   0.27721   -0.154 
H2       H      0.0876002  0.9225     0.2962     0.138 
C7       C      0.0334399  0.92394    0.2421    -0.143 
H3       H      0.0232002  0.903699   0.238      0.132 
C8       C      0.0190002  0.9396     0.2402    -0.167 
H4       H      0.9998     0.930799   0.232099   0.136 
Zn1      Zn     0.792036   0.643294   0.742012   1.225 
Zn1      Zn     0.852584   0.692969   0.712943   1.225 
Zn1      Zn     0.634839   0.29576    0.2281     1.225 
O2       O      0.82346    0.67558    0.67854   -0.603 
O2       O      0.781679   0.643009   0.697051  -0.603 
O2       O      0.65243    0.766119   0.268211  -0.603 
O2       O      0.68557    0.80162    0.299991  -0.603 
O2       O      0.668991   0.371461   0.309079  -0.603 
O2       O      0.660901   0.38845    0.266549  -0.603 
O2       O      0.77961    0.60138    0.75159   -0.603 
O2       O      0.87173    0.73413    0.7244    -0.603 
C10      C      0.715689   0.60898    0.452921   0.051 
C11      C      0.71021    0.62895    0.436629  -0.196 
H4       H      0.7132     0.646199   0.4465     0.136 
C10      C      0.700209   0.623119   0.405579   0.051 
C11      C      0.69569    0.59732    0.39081   -0.196 
H4       H      0.689      0.5934     0.37       0.136 
C10      C      0.70117    0.57735    0.407099   0.051 
C11      C      0.71117    0.583179   0.438151  -0.196 
H4       H      0.7148     0.569799   0.4491     0.136 
C6       C      0.75043    0.628779   0.547911   0.036 
C7       C      0.758299   0.651799   0.526491  -0.143 
H3       H      0.770901   0.671301   0.532699   0.132 
C8       C      0.74737    0.645611   0.495801  -0.167 
H4       H      0.7526     0.661      0.481501   0.136 
C9       C      0.728571   0.61642    0.486499   0.067 
C8       C      0.72071    0.59342    0.50791   -0.167 
H4       H      0.708101   0.573901   0.501699   0.136 
C7       C      0.73163    0.599591   0.538619  -0.143 
H3       H      0.726401   0.5842     0.5529     0.132 
C2       C      0.78519    0.64902    0.64305    0.076 
C3       C      0.802551   0.664731   0.61731   -0.174 
H1       H      0.8221     0.6796     0.620399   0.15  
C4       C      0.790669   0.65813    0.587     -0.154 
H2       H      0.8023     0.6686     0.569801   0.138 
C5       C      0.76144    0.63582    0.582439   0.055 
C4       C      0.744079   0.620109   0.608179  -0.154 
H2       H      0.7245     0.6052     0.6051     0.138 
C3       C      0.755951   0.626711   0.638489  -0.174 
H1       H      0.7443     0.616201   0.6557     0.15  
C1       C      0.799799   0.65381    0.675201   0.56  
C9       C      0.693951   0.643551   0.38735    0.067 
C8       C      0.70651    0.67218    0.3994    -0.167 
H4       H      0.7173     0.677001   0.4181     0.136 
C7       C      0.702909   0.693539   0.383479  -0.143 
H3       H      0.7113     0.712699   0.3915     0.132 
C6       C      0.68676    0.686279   0.355511   0.036 
C7       C      0.6742     0.65765    0.343461  -0.143 
H3       H      0.6634     0.6528     0.3247     0.132 
C8       C      0.677799   0.636279   0.359379  -0.167 
H4       H      0.669399   0.6171     0.3513     0.136 
C5       C      0.682879   0.71159    0.341481   0.055 
C4       C      0.695649   0.741351   0.349731  -0.154 
H2       H      0.707899   0.7486     0.3674     0.138 
C3       C      0.690131   0.760351   0.33161   -0.174 
H1       H      0.698701   0.780301   0.337099   0.15  
C2       C      0.67184    0.749601   0.30523    0.076 
C3       C      0.659069   0.719829   0.29698   -0.174 
H1       H      0.6468     0.7126     0.279301   0.15  
C4       C      0.66459    0.700831   0.315101  -0.154 
H2       H      0.656      0.680901   0.309599   0.138 
C1       C      0.67009    0.775      0.289949   0.56  
C9       C      0.694699   0.547689   0.3914     0.067 
C8       C      0.6711     0.5329     0.3706    -0.167 
H4       H      0.658399   0.5403     0.366599   0.136 
C7       C      0.666401   0.507101   0.3557    -0.143 
H3       H      0.650599   0.497199   0.3418     0.132 
C6       C      0.6854     0.4961     0.361601   0.036 
C7       C      0.709001   0.510901   0.382501  -0.143 
H3       H      0.7217     0.503501   0.386499   0.132 
C8       C      0.7136     0.5367     0.397401  -0.167 
H4       H      0.729399   0.5465     0.411301   0.136 
C5       C      0.68324    0.47142    0.34503    0.055 
C4       C      0.658859   0.45573    0.32535   -0.154 
H2       H      0.645699   0.462599   0.3219     0.138 
C3       C      0.65419    0.42976    0.310861  -0.174 
H1       H      0.6379     0.419301   0.297701   0.15  
C2       C      0.673881   0.41947    0.316051   0.076 
C3       C      0.69825    0.43516    0.335731  -0.174 
H1       H      0.711399   0.428299   0.3392     0.15  
C4       C      0.702929   0.461139   0.35021   -0.154 
H2       H      0.719199   0.4716     0.363399   0.138 
C1       C      0.6696     0.393799   0.2956     0.56  
C3       C      0.748461   0.540779   0.752559  -0.174 
H1       H      0.738101   0.551001   0.7544     0.15  
C4       C      0.732671   0.510111   0.752609  -0.154 
H2       H      0.712101   0.5004     0.7544     0.138 
C7       C      0.699509   0.442501   0.755     -0.143 
H3       H      0.6894     0.4524     0.7601     0.132 
C8       C      0.684089   0.412129   0.752701  -0.167 
H4       H      0.663501   0.402001   0.7531     0.136 
C3       C      0.893      0.793701   0.777191  -0.174 
H1       H      0.884599   0.783299   0.795699   0.15  
C4       C      0.909099   0.8248     0.77721   -0.154 
H2       H      0.9124     0.834899   0.7962     0.138 
C7       C      0.96656    0.890499   0.7421    -0.143 
H3       H      0.9768     0.8805     0.738      0.132 
C8       C      0.981001   0.9206     0.7402    -0.167 
H4       H      0.0002012  0.931001   0.732099   0.136 
Zn1      Zn     0.356706   0.148742   0.742012   1.225 
Zn1      Zn     0.307031   0.159616   0.712943   1.225 
Zn1      Zn     0.704241   0.339081   0.2281     1.225 
O2       O      0.32442    0.147879   0.67854   -0.603 
O2       O      0.35699    0.13867    0.697051  -0.603 
O2       O      0.23388    0.886311   0.268211  -0.603 
O2       O      0.198379   0.883949   0.299991  -0.603 
O2       O      0.628541   0.297529   0.309079  -0.603 
O2       O      0.611551   0.27245    0.266549  -0.603 
O2       O      0.398621   0.17823    0.75159   -0.603 
O2       O      0.26587    0.1376     0.7244    -0.603 
C10      C      0.391019   0.106709   0.452921   0.051 
C11      C      0.37105    0.081261   0.436629  -0.196 
H4       H      0.353799   0.0669998  0.4465     0.136 
C10      C      0.376881   0.0770903  0.405579   0.051 
C11      C      0.40268    0.09837    0.39081   -0.196 
H4       H      0.4066     0.0955998  0.37       0.136 
C10      C      0.42265    0.12382    0.407099   0.051 
C11      C      0.416821   0.127991   0.438151  -0.196 
H4       H      0.430201   0.145      0.4491     0.136 
C6       C      0.37122    0.12165    0.547911   0.036 
C7       C      0.3482     0.1065     0.526491  -0.143 
H3       H      0.328699   0.0995996  0.532699   0.132 
C8       C      0.35439    0.101759   0.495801  -0.167 
H4       H      0.338999   0.0916001  0.481501   0.136 
C9       C      0.38358    0.112149   0.486499   0.067 
C8       C      0.40658    0.12729    0.50791   -0.167 
H4       H      0.4261     0.134199   0.501699   0.136 
C7       C      0.400409   0.13204    0.538619  -0.143 
H3       H      0.4158     0.142199   0.5529     0.132 
C2       C      0.350981   0.13617    0.64305    0.076 
C3       C      0.33527    0.13782    0.61731   -0.174 
H1       H      0.320401   0.142501   0.620399   0.15  
C4       C      0.34187    0.132539   0.587     -0.154 
H2       H      0.3314     0.1337     0.569801   0.138 
C5       C      0.364181   0.12562    0.582439   0.055 
C4       C      0.37989    0.123969   0.608179  -0.154 
H2       H      0.3948     0.119299   0.6051     0.138 
C3       C      0.37329    0.129241   0.638489  -0.174 
H1       H      0.383799   0.1281     0.6557     0.15  
C1       C      0.346191   0.14599    0.675201   0.56  
C9       C      0.35645    0.0503991  0.38735    0.067 
C8       C      0.32782    0.0343289  0.3994    -0.167 
H4       H      0.323001   0.0402998  0.4181     0.136 
C7       C      0.306459   0.0093691  0.383479  -0.143 
H3       H      0.287299   0.9986     0.3915     0.132 
C6       C      0.313721   0.0004794  0.355511   0.036 
C7       C      0.342349   0.0165496  0.343461  -0.143 
H3       H      0.3472     0.010601   0.3247     0.132 
C8       C      0.363721   0.0415206  0.359379  -0.167 
H4       H      0.382899   0.0522991  0.3513     0.136 
C5       C      0.288409   0.97129    0.341481   0.055 
C4       C      0.25865    0.9543     0.349731  -0.154 
H2       H      0.2514     0.959299   0.3674     0.138 
C3       C      0.239651   0.92978    0.33161   -0.174 
H1       H      0.219699   0.9184     0.337099   0.15  
C2       C      0.2504     0.92224    0.30523    0.076 
C3       C      0.280169   0.93924    0.29698   -0.174 
H1       H      0.287399   0.934199   0.279301   0.15  
C4       C      0.299171   0.963761   0.315101  -0.154 
H2       H      0.3191     0.975101   0.309599   0.138 
C1       C      0.225      0.895089   0.289949   0.56  
C9       C      0.45231    0.147009   0.3914     0.067 
C8       C      0.4671     0.138199   0.3706    -0.167 
H4       H      0.4597     0.1181     0.366599   0.136 
C7       C      0.4929     0.159299   0.3557    -0.143 
H3       H      0.5028     0.153399   0.3418     0.132 
C6       C      0.5039     0.1893     0.361601   0.036 
C7       C      0.489101   0.198101   0.382501  -0.143 
H3       H      0.496499   0.218199   0.386499   0.132 
C8       C      0.463299   0.176901   0.397401  -0.167 
H4       H      0.453501   0.1829     0.411301   0.136 
C5       C      0.528579   0.21182    0.34503    0.055 
C4       C      0.54427    0.20313    0.32535   -0.154 
H2       H      0.5374     0.1831     0.3219     0.138 
C3       C      0.57024    0.22443    0.310861  -0.174 
H1       H      0.5807     0.218599   0.297701   0.15  
C2       C      0.580531   0.254411   0.316051   0.076 
C3       C      0.56484    0.263089   0.335731  -0.174 
H1       H      0.5717     0.283099   0.3392     0.15  
C4       C      0.53886    0.24179    0.35021   -0.154 
H2       H      0.5284     0.247601   0.363399   0.138 
C1       C      0.606199   0.275799   0.2956     0.56  
C3       C      0.459221   0.207681   0.752559  -0.174 
H1       H      0.449      0.1871     0.7544     0.15  
C4       C      0.48989    0.222561   0.752609  -0.154 
H2       H      0.499601   0.2117     0.7544     0.138 
C7       C      0.5575     0.25701    0.755     -0.143 
H3       H      0.547599   0.237      0.7601     0.132 
C8       C      0.587869   0.271959   0.752701  -0.167 
H4       H      0.598      0.2615     0.7531     0.136 
C3       C      0.206299   0.0993     0.777191  -0.174 
H1       H      0.216701   0.1013     0.795699   0.15  
C4       C      0.175199   0.0842997  0.77721   -0.154 
H2       H      0.165101   0.0775009  0.7962     0.138 
C7       C      0.1095     0.0760604  0.7421    -0.143 
H3       H      0.1195     0.096299   0.738      0.132 
C8       C      0.0794007  0.0604008  0.7402    -0.167 
H4       H      0.0690006  0.0691995  0.732099   0.136 
Zn1      Zn     0.851257   0.207962   0.742012   1.225 
Zn1      Zn     0.840383   0.147415   0.712943   1.225 
Zn1      Zn     0.66092    0.365159   0.2281     1.225 
O2       O      0.852119   0.176539   0.67854   -0.603 
O2       O      0.86133    0.218319   0.697051  -0.603 
O2       O      0.11369    0.347571   0.268211  -0.603 
O2       O      0.11605    0.31443    0.299991  -0.603 
O2       O      0.70247    0.33101    0.309079  -0.603 
O2       O      0.727551   0.339101   0.266549  -0.603 
O2       O      0.821771   0.22039    0.75159   -0.603 
O2       O      0.8624     0.128271   0.7244    -0.603 
C10      C      0.893289   0.284309   0.452921   0.051 
C11      C      0.91874    0.289789   0.436629  -0.196 
H4       H      0.933      0.2868     0.4465     0.136 
C10      C      0.922911   0.299791   0.405579   0.051 
C11      C      0.90163    0.30431    0.39081   -0.196 
H4       H      0.904401   0.311      0.37       0.136 
C10      C      0.876181   0.29883    0.407099   0.051 
C11      C      0.872009   0.288831   0.438151  -0.196 
H4       H      0.855      0.285199   0.4491     0.136 
C6       C      0.878351   0.24957    0.547911   0.036 
C7       C      0.8935     0.241701   0.526491  -0.143 
H3       H      0.9004     0.2291     0.532699   0.132 
C8       C      0.898241   0.25263    0.495801  -0.167 
H4       H      0.908401   0.247401   0.481501   0.136 
C9       C      0.887851   0.271431   0.486499   0.067 
C8       C      0.87271    0.279291   0.50791   -0.167 
H4       H      0.865799   0.2919     0.501699   0.136 
C7       C      0.867959   0.26837    0.538619  -0.143 
H3       H      0.8578     0.273599   0.5529     0.132 
C2       C      0.863829   0.21481    0.64305    0.076 
C3       C      0.862181   0.19745    0.61731   -0.174 
H1       H      0.8575     0.1779     0.620399   0.15  
C4       C      0.867459   0.20933    0.587     -0.154 
H2       H      0.866301   0.197701   0.569801   0.138 
C5       C      0.87438    0.23856    0.582439   0.055 
C4       C      0.87603    0.25592    0.608179  -0.154 
H2       H      0.880699   0.275499   0.6051     0.138 
C3       C      0.87076    0.244049   0.638489  -0.174 
H1       H      0.871901   0.2557     0.6557     0.15  
C1       C      0.85401    0.2002     0.675201   0.56  
C9       C      0.9496     0.30605    0.38735    0.067 
C8       C      0.965669   0.29349    0.3994    -0.167 
H4       H      0.9597     0.2827     0.4181     0.136 
C7       C      0.990629   0.29709    0.383479  -0.143 
H3       H      0.0014006  0.2887     0.3915     0.132 
C6       C      0.999519   0.31324    0.355511   0.036 
C7       C      0.983451   0.325801   0.343461  -0.143 
H3       H      0.9894     0.336599   0.3247     0.132 
C8       C      0.95848    0.322201   0.359379  -0.167 
H4       H      0.9477     0.3306     0.3513     0.136 
C5       C      0.0287091  0.31712    0.341481   0.055 
C4       C      0.0457009  0.30435    0.349731  -0.154 
H2       H      0.0407004  0.2921     0.3674     0.138 
C3       C      0.0702211  0.30987    0.33161   -0.174 
H1       H      0.0816006  0.3013     0.337099   0.15  
C2       C      0.0777609  0.32816    0.30523    0.076 
C3       C      0.0607594  0.34093    0.29698   -0.174 
H1       H      0.0658007  0.3532     0.279301   0.15  
C4       C      0.0362393  0.33541    0.315101  -0.154 
H2       H      0.0249005  0.344      0.309599   0.138 
C1       C      0.104909   0.329909   0.289949   0.56  
C9       C      0.85299    0.3053     0.3914     0.067 
C8       C      0.861799   0.328899   0.3706    -0.167 
H4       H      0.881899   0.3416     0.366599   0.136 
C7       C      0.8407     0.333601   0.3557    -0.143 
H3       H      0.8466     0.3494     0.3418     0.132 
C6       C      0.810701   0.314601   0.361601   0.036 
C7       C      0.801899   0.290999   0.382501  -0.143 
H3       H      0.7818     0.278301   0.386499   0.132 
C8       C      0.823101   0.2864     0.397401  -0.167 
H4       H      0.8171     0.270601   0.411301   0.136 
C5       C      0.788181   0.31676    0.34503    0.055 
C4       C      0.796871   0.341141   0.32535   -0.154 
H2       H      0.816901   0.354301   0.3219     0.138 
C3       C      0.77557    0.345811   0.310861  -0.174 
H1       H      0.7814     0.362101   0.297701   0.15  
C2       C      0.745591   0.32612    0.316051   0.076 
C3       C      0.73691    0.301751   0.335731  -0.174 
H1       H      0.7169     0.2886     0.3392     0.15  
C4       C      0.75821    0.29707    0.35021   -0.154 
H2       H      0.752401   0.2808     0.363399   0.138 
C1       C      0.7242     0.3304     0.2956     0.56  
C3       C      0.792321   0.251541   0.752559  -0.174 
H1       H      0.8129     0.2619     0.7544     0.15  
C4       C      0.777441   0.267331   0.752609  -0.154 
H2       H      0.788301   0.2879     0.7544     0.138 
C7       C      0.742991   0.30049    0.755     -0.143 
H3       H      0.763001   0.310601   0.7601     0.132 
C8       C      0.728041   0.31591    0.752701  -0.167 
H4       H      0.738499   0.336499   0.7531     0.136 
C3       C      0.900699   0.107      0.777191  -0.174 
H1       H      0.898699   0.115399   0.795699   0.15  
C4       C      0.9157     0.0909009  0.77721   -0.154 
H2       H      0.9225     0.0876003  0.7962     0.138 
C7       C      0.923941   0.0334411  0.7421    -0.143 
H3       H      0.903699   0.0231997  0.738      0.132 
C8       C      0.939601   0.0190001  0.7402    -0.167 
H4       H      0.930801   0.999801   0.732099   0.136 
Zn1      Zn     0.356705   0.207962   0.757988   1.225 
Zn1      Zn     0.307032   0.147415   0.787057   1.225 
O2       O      0.32442    0.176539   0.82146   -0.603 
O2       O      0.356989   0.218319   0.802949  -0.603 
O2       O      0.233881   0.347571   0.231789  -0.603 
O2       O      0.19838    0.31443    0.200009  -0.603 
O2       O      0.6072     0.3053     0.204601  -0.603 
O2       O      0.624761   0.3529     0.2098    -0.603 
O2       O      0.398619   0.22039    0.74841   -0.603 
O2       O      0.265871   0.128271   0.7756    -0.603 
C10      C      0.39102    0.284309   0.0470791  0.051 
C11      C      0.371049   0.289789   0.0633708 -0.196 
H4       H      0.353799   0.2868     0.0534999  0.136 
C10      C      0.37688    0.299791   0.0944206  0.051 
C11      C      0.40268    0.30431    0.10919   -0.196 
H4       H      0.4066     0.311      0.13       0.136 
C10      C      0.422649   0.29883    0.092901   0.051 
C11      C      0.416821   0.288831   0.0618489 -0.196 
H4       H      0.430199   0.285199   0.0509004  0.136 
C6       C      0.371219   0.24957    0.952089   0.036 
C7       C      0.3482     0.241701   0.973509  -0.143 
H3       H      0.3287     0.2291     0.967301   0.132 
C8       C      0.35439    0.25263    0.0041997 -0.167 
H4       H      0.339      0.247401   0.0184989  0.136 
C9       C      0.38358    0.271431   0.0135008  0.067 
C8       C      0.40658    0.279291   0.99209   -0.167 
H4       H      0.426101   0.2919     0.998301   0.136 
C7       C      0.400411   0.26837    0.961381  -0.143 
H3       H      0.415799   0.273599   0.9471     0.132 
C2       C      0.350981   0.21481    0.85695    0.076 
C3       C      0.335269   0.19745    0.88269   -0.174 
H1       H      0.3204     0.1779     0.879601   0.15  
C4       C      0.34187    0.20933    0.913     -0.154 
H2       H      0.3314     0.197701   0.930199   0.138 
C5       C      0.36418    0.23856    0.917561   0.055 
C4       C      0.37989    0.25592    0.891821  -0.154 
H2       H      0.394801   0.275499   0.8949     0.138 
C3       C      0.373289   0.244049   0.861511  -0.174 
H1       H      0.383799   0.2557     0.8443     0.15  
C1       C      0.34619    0.2002     0.824799   0.56  
C9       C      0.356451   0.30605    0.11265    0.067 
C8       C      0.32782    0.29349    0.1006    -0.167 
H4       H      0.323      0.2827     0.0819005  0.136 
C7       C      0.306461   0.29709    0.116521  -0.143 
H3       H      0.287299   0.2887     0.1085     0.132 
C6       C      0.313721   0.31324    0.144489   0.036 
C7       C      0.342349   0.325801   0.156539  -0.143 
H3       H      0.347199   0.336599   0.1753     0.132 
C8       C      0.36372    0.322201   0.140621  -0.167 
H4       H      0.3829     0.3306     0.1487     0.136 
C5       C      0.288411   0.31712    0.158519   0.055 
C4       C      0.258649   0.30435    0.150269  -0.154 
H2       H      0.2514     0.2921     0.1326     0.138 
C3       C      0.239649   0.30987    0.16839   -0.174 
H1       H      0.2197     0.3013     0.162901   0.15  
C2       C      0.250399   0.32816    0.19477    0.076 
C3       C      0.28017    0.34093    0.20302   -0.174 
H1       H      0.287399   0.3532     0.220699   0.15  
C4       C      0.29917    0.33541    0.184899  -0.154 
H2       H      0.319099   0.344      0.190401   0.138 
C1       C      0.225      0.329909   0.210051   0.56  
C9       C      0.45231    0.3053     0.1086     0.067 
C8       C      0.467101   0.328899   0.1294    -0.167 
H4       H      0.459701   0.3416     0.133401   0.136 
C7       C      0.492901   0.333601   0.1443    -0.143 
H3       H      0.5028     0.3494     0.1582     0.132 
C6       C      0.5039     0.314601   0.138399   0.036 
C7       C      0.4891     0.290999   0.117499  -0.143 
H3       H      0.496501   0.278301   0.113501   0.132 
C8       C      0.463299   0.2864     0.102599  -0.167 
H4       H      0.4535     0.270601   0.0886993  0.136 
C5       C      0.528579   0.31676    0.15497    0.055 
C4       C      0.54427    0.341141   0.17465   -0.154 
H2       H      0.5374     0.354301   0.1781     0.138 
C3       C      0.570241   0.345811   0.189139  -0.174 
H1       H      0.580701   0.362101   0.202299   0.15  
C2       C      0.58053    0.32612    0.183949   0.076 
C3       C      0.564841   0.301751   0.164269  -0.174 
H1       H      0.5717     0.2886     0.1608     0.15  
C4       C      0.53886    0.29707    0.14979   -0.154 
H2       H      0.528399   0.2808     0.136601   0.138 
C1       C      0.6062     0.3304     0.2044     0.56  
C3       C      0.45922    0.251541   0.747441  -0.174 
H1       H      0.449      0.2619     0.7456     0.15  
C4       C      0.48989    0.267331   0.747391  -0.154 
H2       H      0.4996     0.2879     0.7456     0.138 
C7       C      0.5575     0.30049    0.745     -0.143 
H3       H      0.5476     0.310601   0.7399     0.132 
C8       C      0.587869   0.31591    0.747299  -0.167 
H4       H      0.598001   0.336499   0.7469     0.136 
C3       C      0.206301   0.107      0.722809  -0.174 
H1       H      0.2167     0.115399   0.704301   0.15  
C4       C      0.175201   0.0909009  0.72279   -0.154 
H2       H      0.165101   0.0876003  0.7038     0.138 
C7       C      0.109501   0.0334411  0.7579    -0.143 
H3       H      0.1195     0.0231997  0.762      0.132 
C8       C      0.0793993  0.0190001  0.7598    -0.167 
H4       H      0.069      0.999801   0.767901   0.136 
Zn1      Zn     0.851257   0.643294   0.757988   1.225 
Zn1      Zn     0.840385   0.692969   0.787057   1.225 
O2       O      0.852121   0.67558    0.82146   -0.603 
O2       O      0.86133    0.643009   0.802949  -0.603 
O2       O      0.113689   0.766119   0.231789  -0.603 
O2       O      0.11605    0.80162    0.200009  -0.603 
O2       O      0.6981     0.392801   0.204601  -0.603 
O2       O      0.72814    0.375241   0.2098    -0.603 
O2       O      0.82177    0.60138    0.74841   -0.603 
O2       O      0.8624     0.73413    0.7756    -0.603 
C10      C      0.893291   0.60898    0.0470791  0.051 
C11      C      0.918741   0.62895    0.0633708 -0.196 
H4       H      0.932999   0.646199   0.0534999  0.136 
C10      C      0.922909   0.623119   0.0944206  0.051 
C11      C      0.90163    0.59732    0.10919   -0.196 
H4       H      0.904401   0.5934     0.13       0.136 
C10      C      0.87618    0.57735    0.092901   0.051 
C11      C      0.872009   0.583179   0.0618489 -0.196 
H4       H      0.854999   0.569799   0.0509004  0.136 
C6       C      0.878349   0.628779   0.952089   0.036 
C7       C      0.8935     0.651799   0.973509  -0.143 
H3       H      0.9004     0.671301   0.967301   0.132 
C8       C      0.898241   0.645611   0.0041994 -0.167 
H4       H      0.9084     0.661      0.0184989  0.136 
C9       C      0.88785    0.61642    0.0135008  0.067 
C8       C      0.872711   0.59342    0.99209   -0.167 
H4       H      0.8658     0.573901   0.998301   0.136 
C7       C      0.867961   0.599591   0.961381  -0.143 
H3       H      0.857799   0.5842     0.9471     0.132 
C2       C      0.86383    0.64902    0.85695    0.076 
C3       C      0.86218    0.664731   0.88269   -0.174 
H1       H      0.8575     0.6796     0.879601   0.15  
C4       C      0.86746    0.65813    0.913     -0.154 
H2       H      0.8663     0.6686     0.930199   0.138 
C5       C      0.87438    0.63582    0.917561   0.055 
C4       C      0.876031   0.620109   0.891821  -0.154 
H2       H      0.8807     0.6052     0.8949     0.138 
C3       C      0.87076    0.626711   0.861511  -0.174 
H1       H      0.8719     0.616201   0.8443     0.15  
C1       C      0.854011   0.65381    0.824799   0.56  
C9       C      0.9496     0.643551   0.11265    0.067 
C8       C      0.96567    0.67218    0.1006    -0.167 
H4       H      0.959701   0.677001   0.0819005  0.136 
C7       C      0.99063    0.693539   0.116521  -0.143 
H3       H      0.0013999  0.712699   0.1085     0.132 
C6       C      0.99952    0.686279   0.144489   0.036 
C7       C      0.98345    0.65765    0.156539  -0.143 
H3       H      0.9894     0.6528     0.1753     0.132 
C8       C      0.95848    0.636279   0.140621  -0.167 
H4       H      0.947701   0.6171     0.1487     0.136 
C5       C      0.0287101  0.71159    0.158519   0.055 
C4       C      0.0457012  0.741351   0.150269  -0.154 
H2       H      0.0407007  0.7486     0.1326     0.138 
C3       C      0.0702199  0.760351   0.16839   -0.174 
H1       H      0.0816001  0.780301   0.162901   0.15  
C2       C      0.0777607  0.749601   0.19477    0.076 
C3       C      0.0607602  0.719829   0.20302   -0.174 
H1       H      0.0657996  0.7126     0.220699   0.15  
C4       C      0.0362407  0.700831   0.184899  -0.154 
H2       H      0.0249012  0.680901   0.190401   0.138 
C1       C      0.10491    0.775      0.210051   0.56  
C9       C      0.85299    0.547689   0.1086     0.067 
C8       C      0.8618     0.5329     0.1294    -0.167 
H4       H      0.881901   0.5403     0.133401   0.136 
C7       C      0.8407     0.507101   0.1443    -0.143 
H3       H      0.8466     0.497199   0.1582     0.132 
C6       C      0.810701   0.4961     0.138399   0.036 
C7       C      0.8019     0.510901   0.117499  -0.143 
H3       H      0.781801   0.503501   0.113501   0.132 
C8       C      0.8231     0.5367     0.102599  -0.167 
H4       H      0.8171     0.5465     0.0886993  0.136 
C5       C      0.78818    0.47142    0.15497    0.055 
C4       C      0.79687    0.45573    0.17465   -0.154 
H2       H      0.8169     0.462599   0.1781     0.138 
C3       C      0.77557    0.42976    0.189139  -0.174 
H1       H      0.781401   0.419301   0.202299   0.15  
C2       C      0.745589   0.41947    0.183949   0.076 
C3       C      0.73691    0.43516    0.164269  -0.174 
H1       H      0.7169     0.428299   0.1608     0.15  
C4       C      0.75821    0.461139   0.14979   -0.154 
H2       H      0.752401   0.4716     0.136601   0.138 
C1       C      0.7242     0.393799   0.2044     0.56  
C3       C      0.792319   0.540779   0.747441  -0.174 
H1       H      0.8129     0.551001   0.7456     0.15  
C4       C      0.77744    0.510111   0.747391  -0.154 
H2       H      0.788299   0.5004     0.7456     0.138 
C7       C      0.742991   0.442501   0.745     -0.143 
H3       H      0.763      0.4524     0.7399     0.132 
C8       C      0.72804    0.412129   0.747299  -0.167 
H4       H      0.7385     0.402001   0.7469     0.136 
C3       C      0.900701   0.793701   0.722809  -0.174 
H1       H      0.898701   0.783299   0.704301   0.15  
C4       C      0.915701   0.8248     0.72279   -0.154 
H2       H      0.922499   0.834899   0.7038     0.138 
C7       C      0.923939   0.890499   0.7579    -0.143 
H3       H      0.9037     0.8805     0.762      0.132 
C8       C      0.939599   0.9206     0.7598    -0.167 
H4       H      0.9308     0.931001   0.767901   0.136 
Zn1      Zn     0.792037   0.148742   0.757988   1.225 
Zn1      Zn     0.852585   0.159616   0.787057   1.225 
O2       O      0.823459   0.147879   0.82146   -0.603 
O2       O      0.78168    0.13867    0.802949  -0.603 
O2       O      0.65243    0.886311   0.231789  -0.603 
O2       O      0.68557    0.883949   0.200009  -0.603 
O2       O      0.694701   0.3019     0.204601  -0.603 
O2       O      0.6471     0.271859   0.2098    -0.603 
O2       O      0.77961    0.17823    0.74841   -0.603 
O2       O      0.871729   0.1376     0.7756    -0.603 
C10      C      0.71569    0.106709   0.0470791  0.051 
C11      C      0.710211   0.081261   0.0633708 -0.196 
H4       H      0.713201   0.0669998  0.0534999  0.136 
C10      C      0.700209   0.0770903  0.0944206  0.051 
C11      C      0.69569    0.09837    0.10919   -0.196 
H4       H      0.689      0.0955998  0.13       0.136 
C10      C      0.70117    0.12382    0.092901   0.051 
C11      C      0.71117    0.127991   0.0618489 -0.196 
H4       H      0.714799   0.145      0.0509004  0.136 
C6       C      0.750429   0.12165    0.952089   0.036 
C7       C      0.7583     0.1065     0.973509  -0.143 
H3       H      0.770901   0.0995996  0.967301   0.132 
C8       C      0.74737    0.101759   0.0041994 -0.167 
H4       H      0.752599   0.0916001  0.0184989  0.136 
C9       C      0.728569   0.112149   0.0135008  0.067 
C8       C      0.720709   0.12729    0.99209   -0.167 
H4       H      0.7081     0.134199   0.998301   0.136 
C7       C      0.731631   0.13204    0.961381  -0.143 
H3       H      0.726399   0.142199   0.9471     0.132 
C2       C      0.78519    0.13617    0.85695    0.076 
C3       C      0.802549   0.13782    0.88269   -0.174 
H1       H      0.8221     0.142501   0.879601   0.15  
C4       C      0.790669   0.132539   0.913     -0.154 
H2       H      0.8023     0.1337     0.930199   0.138 
C5       C      0.76144    0.12562    0.917561   0.055 
C4       C      0.744079   0.123969   0.891821  -0.154 
H2       H      0.724499   0.119299   0.8949     0.138 
C3       C      0.755951   0.129241   0.861511  -0.174 
H1       H      0.744301   0.1281     0.8443     0.15  
C1       C      0.799799   0.14599    0.824799   0.56  
C9       C      0.693949   0.0503991  0.11265    0.067 
C8       C      0.706509   0.0343289  0.1006    -0.167 
H4       H      0.717299   0.0402998  0.0819005  0.136 
C7       C      0.70291    0.0093691  0.116521  -0.143 
H3       H      0.711301   0.9986     0.1085     0.132 
C6       C      0.686759   0.0004794  0.144489   0.036 
C7       C      0.674199   0.0165496  0.156539  -0.143 
H3       H      0.663401   0.010601   0.1753     0.132 
C8       C      0.6778     0.0415206  0.140621  -0.167 
H4       H      0.6694     0.0522991  0.1487     0.136 
C5       C      0.682881   0.97129    0.158519   0.055 
C4       C      0.69565    0.9543     0.150269  -0.154 
H2       H      0.707899   0.959299   0.1326     0.138 
C3       C      0.690129   0.92978    0.16839   -0.174 
H1       H      0.698701   0.9184     0.162901   0.15  
C2       C      0.67184    0.92224    0.19477    0.076 
C3       C      0.659071   0.93924    0.20302   -0.174 
H1       H      0.646801   0.934199   0.220699   0.15  
C4       C      0.66459    0.963761   0.184899  -0.154 
H2       H      0.656      0.975101   0.190401   0.138 
C1       C      0.670089   0.895089   0.210051   0.56  
C9       C      0.694699   0.147009   0.1086     0.067 
C8       C      0.671099   0.138199   0.1294    -0.167 
H4       H      0.6584     0.1181     0.133401   0.136 
C7       C      0.666399   0.159299   0.1443    -0.143 
H3       H      0.650599   0.153399   0.1582     0.132 
C6       C      0.6854     0.1893     0.138399   0.036 
C7       C      0.709      0.198101   0.117499  -0.143 
H3       H      0.7217     0.218199   0.113501   0.132 
C8       C      0.713601   0.176901   0.102599  -0.167 
H4       H      0.7294     0.1829     0.0886993  0.136 
C5       C      0.683241   0.21182    0.15497    0.055 
C4       C      0.65886    0.20313    0.17465   -0.154 
H2       H      0.6457     0.1831     0.1781     0.138 
C3       C      0.65419    0.22443    0.189139  -0.174 
H1       H      0.637899   0.218599   0.202299   0.15  
C2       C      0.67388    0.254411   0.183949   0.076 
C3       C      0.698249   0.263089   0.164269  -0.174 
H1       H      0.711399   0.283099   0.1608     0.15  
C4       C      0.702929   0.24179    0.14979   -0.154 
H2       H      0.7192     0.247601   0.136601   0.138 
C1       C      0.6696     0.275799   0.2044     0.56  
C3       C      0.74846    0.207681   0.747441  -0.174 
H1       H      0.7381     0.1871     0.7456     0.15  
C4       C      0.732671   0.222561   0.747391  -0.154 
H2       H      0.712099   0.2117     0.7456     0.138 
C7       C      0.699509   0.25701    0.745     -0.143 
H3       H      0.689401   0.237      0.7399     0.132 
C8       C      0.68409    0.271959   0.747299  -0.167 
H4       H      0.6635     0.2615     0.7469     0.136 
C3       C      0.893001   0.0993     0.722809  -0.174 
H1       H      0.884599   0.1013     0.704301   0.15  
C4       C      0.9091     0.0842997  0.72279   -0.154 
H2       H      0.9124     0.0775009  0.7038     0.138 
C7       C      0.96656    0.0760604  0.7579    -0.143 
H3       H      0.976799   0.096299   0.762      0.132 
C8       C      0.981      0.0604008  0.7598    -0.167 
H4       H      0.0001989  0.0691995  0.767901   0.136 
Zn1      Zn     0.333333   0.666666   0.79015    1.225 
Zn1      Zn     0.666667   0.333334   0.29015    1.225 
O1       O      0.333333   0.666666   0.75      -1.39  
O1       O      0.666667   0.333334   0.25      -1.39  
O1       O      0.166595   0.33319    0.25      -1.39  
C1       C      0.20515    0.4103     0.25       0.56  
C2       C      0.2217     0.4434     0.25       0.076 
C5       C      0.25335    0.506699   0.25       0.055 
C6       C      0.27095    0.5419     0.25       0.036 
C9       C      0.30155    0.6031     0.25       0.067 
C10      C      0.31829    0.636579   0.25       0.051 
C1       C      0.12695    0.2539     0.25       0.56  
C2       C      0.1102     0.220399   0.25       0.076 
C5       C      0.0797505  0.159501   0.25       0.055 
C6       C      0.0624995  0.124999   0.25       0.036 
C9       C      0.0326498  0.0652996  0.25       0.067 
C10      C      0.0149648  0.0299296  0.25       0.051 
O1       O      0.66681    0.833406   0.25      -1.39  
C1       C      0.5897     0.79485    0.25       0.56  
C2       C      0.556601   0.778301   0.25       0.076 
C5       C      0.4933     0.746651   0.25       0.055 
C6       C      0.4581     0.729049   0.25       0.036 
C9       C      0.396899   0.698449   0.25       0.067 
C10      C      0.363421   0.681711   0.25       0.051 
C1       C      0.7461     0.873051   0.25       0.56  
C2       C      0.779601   0.8898     0.25       0.076 
C5       C      0.8405     0.920249   0.25       0.055 
C6       C      0.874999   0.9375     0.25       0.036 
C9       C      0.934699   0.96735    0.25       0.067 
C10      C      0.97007    0.985036   0.25       0.051 
O1       O      0.166595   0.833406   0.25      -1.39  
C1       C      0.205151   0.79485    0.25       0.56  
C2       C      0.2217     0.778301   0.25       0.076 
C5       C      0.253351   0.746651   0.25       0.055 
C6       C      0.270949   0.729049   0.25       0.036 
C9       C      0.301551   0.698449   0.25       0.067 
C10      C      0.31829    0.681711   0.25       0.051 
C1       C      0.12695    0.873051   0.25       0.56  
C2       C      0.110199   0.8898     0.25       0.076 
C5       C      0.0797489  0.920249   0.25       0.055 
C6       C      0.0625007  0.9375     0.25       0.036 
C9       C      0.0326503  0.96735    0.25       0.067 
C10      C      0.0149661  0.985036   0.25       0.051 
O1       O      0.833405   0.666811   0.75      -1.39  
C1       C      0.79485    0.5897     0.75       0.56  
C2       C      0.778301   0.556601   0.75       0.076 
C5       C      0.74665    0.493299   0.75       0.055 
C6       C      0.72905    0.4581     0.75       0.036 
C9       C      0.69845    0.3969     0.75       0.067 
C10      C      0.68171    0.363419   0.75       0.051 
C1       C      0.87305    0.746101   0.75       0.56  
C2       C      0.8898     0.779599   0.75       0.076 
C5       C      0.92025    0.8405     0.75       0.055 
C6       C      0.9375     0.874999   0.75       0.036 
C9       C      0.967351   0.934701   0.75       0.067 
C10      C      0.985035   0.970071   0.75       0.051 
O1       O      0.33319    0.166595   0.75      -1.39  
C1       C      0.410301   0.20515    0.75       0.56  
C2       C      0.4434     0.2217     0.75       0.076 
C5       C      0.506701   0.25335    0.75       0.055 
C6       C      0.541899   0.270949   0.75       0.036 
C9       C      0.6031     0.301549   0.75       0.067 
C10      C      0.636579   0.31829    0.75       0.051 
C1       C      0.2539     0.12695    0.75       0.56  
C2       C      0.2204     0.110201   0.75       0.076 
C5       C      0.159499   0.0797494  0.75       0.055 
C6       C      0.125001   0.0625006  0.75       0.036 
C9       C      0.0653009  0.0326509  0.75       0.067 
C10      C      0.0299306  0.0149648  0.75       0.051 
O1       O      0.833405   0.166595   0.75      -1.39  
C1       C      0.794849   0.20515    0.75       0.56  
C2       C      0.7783     0.2217     0.75       0.076 
C5       C      0.746649   0.25335    0.75       0.055 
C6       C      0.72905    0.270949   0.75       0.036 
C9       C      0.698449   0.301549   0.75       0.067 
C10      C      0.68171    0.31829    0.75       0.051 
C1       C      0.87305    0.12695    0.75       0.56  
C2       C      0.889801   0.110201   0.75       0.076 
C5       C      0.92025    0.0797494  0.75       0.055 
C6       C      0.9375     0.0625006  0.75       0.036 
C9       C      0.96735    0.0326509  0.75       0.067 
C10      C      0.985034   0.0149648  0.75       0.051 
C11      C      0.348371   0.65163    0.25      -0.196 
H4       H      0.358699   0.6413     0.25       0.136 
C11      C      0.34837    0.69674    0.25      -0.196 
H4       H      0.3587     0.717401   0.25       0.136 
C11      C      0.303259   0.65163    0.25      -0.196 
H4       H      0.282601   0.6413     0.25       0.136 
C11      C      0.651629   0.34837    0.75      -0.196 
H4       H      0.641301   0.3587     0.75       0.136 
C11      C      0.65163    0.30326    0.75      -0.196 
H4       H      0.6413     0.2826     0.75       0.136 
C11      C      0.696741   0.34837    0.75      -0.196 
H4       H      0.717399   0.3587     0.75       0.136 
C11      C      0.0301594  0.0150802  0.25      -0.196 
H4       H      0.0507989  0.0253993  0.25       0.136 
C11      C      0.984921   0.0150802  0.25      -0.196 
H4       H      0.9746     0.0253993  0.25       0.136 
C11      C      0.98492    0.96984    0.25      -0.196 
H4       H      0.9746     0.9492     0.25       0.136 
C11      C      0.969841   0.98492    0.75      -0.196 
H4       H      0.9492     0.974599   0.75       0.136 
C11      C      0.0150795  0.98492    0.75      -0.196 
H4       H      0.0253988  0.974599   0.75       0.136 
C11      C      0.0150802  0.0301605  0.75      -0.196 
H4       H      0.0254004  0.0508009  0.75       0.136 


