data_MOF-210-primitive

_audit_creation_method RASPA-1.0
_audit_creation_date 2011-3-8
_audit_author_name 'David Dubbeldam'

_citation_author_name        'H. Furukawa, N. Ko, Y.B. Go, N. Aratani, S.B. Choi, E. Choi, A.O. Yazaydin, R.Q. Snurr, M. Oâ€™Keeffe, J. Kim, and O.M. Yaghi'
_citation_title              'Ultrahigh Porosity in Metal-Organic Frameworks'
_citation_journal_abbrev     'Science'
_citation_journal_volume     329
_citation_journal_number     5990
_citation_page_first         424
_citation_page_last          428
_citation_year               2010

_cell_length_a    71.0716
_cell_length_b    71.0716
_cell_length_c    71.0716
_cell_angle_alpha 41.832
_cell_angle_beta  41.832
_cell_angle_gamma 41.832
_cell_volume      144401

_symmetry_cell_setting          trigonal
_symmetry_space_group_name_Hall '-P 3*'
_symmetry_space_group_name_H-M  'R -3'
_symmetry_Int_Tables_number     148

loop_
_symmetry_equiv_pos_as_xyz
 'x,y,z'
 'z,x,y'
 'y,z,x'
 '-x,-y,-z'
 '-z,-x,-y'
 '-y,-z,-x'

loop_
_atom_site_label
_atom_site_type_symbol
_atom_site_fract_x
_atom_site_fract_y
_atom_site_fract_z
_atom_site_charge
Zn1      Zn     0.9183     0.0663    -0.3957     0 
Zn2      Zn     0.8797     0.1187    -0.4353     0 
Zn3      Zn     0.8989     0.1369    -0.4241     0 
Zn4      Zn     0.8479     0.1109    -0.3681     0 
Zn5      Zn     0.7804    -0.0296    -0.5066     0 
Zn6      Zn     0.734      0.028     -0.534      0 
Zn7      Zn     0.7183     0.0073    -0.4697     0 
Zn8      Zn     0.766      0.033     -0.526      0 
Zn9      Zn     0.935      0.382     -0.381      0 
Zn10     Zn     0.8966     0.4316    -0.4174     0 
Zn11     Zn     0.8703     0.3883    -0.3487     0 
Zn12     Zn     0.9244     0.3634    -0.3986     0 
O1A      O      0.8863     0.1079    -0.4056     0 
O1B      O      0.7496     0.0097    -0.5091     0 
O1C      O      0.9067     0.3912    -0.3865     0 
O1       O      0.9506     0.0666    -0.4064     0 
O2       O      0.8184     0.1214    -0.3716     0 
O3       O      0.842      0.126     -0.419      0 
O4       O      0.9388     0.1158    -0.4282     0 
O5       O      0.8364     0.1384    -0.3616     0 
O6       O      0.9337     0.0497    -0.4173     0 
O7       O      0.9039     0.0419    -0.3551     0 
O8       O      0.8534     0.0744    -0.3356     0 
O9       O      0.4688     0.1148    -0.1522     0 
O10      O      0.7454     0.0494    -0.5026     0 
O11      O      0.7114     0.0294    -0.4606     0 
O12      O      0.5627     0.2367    -0.0653     0 
O13      O      0.5666     0.2626    -0.0624     0 
O14      O      1.1939    -0.0111    -0.4661     0 
O15      O      1.1819     0.0359    -0.4801     0 
O16      O      0.5123     0.3073    -0.0357     0 
O17      O      0.4654     0.3184    -0.0206     0 
O18      O      1.3426     0.0806    -0.3744     0 
O19      O      1.3188     0.1268    -0.3782     0 
O20      O      0.8366     0.4246    -0.3534     0 
O21      O      0.4614     0.1014    -0.1656     0 
O22      O      0.8734     0.1554    -0.4006     0 
O23      O      0.863      0.36      -0.335      0 
O24      O      0.9018     0.3428    -0.3722     0 
O25      O      0.9621     0.3351    -0.3999     0 
O26      O      1.2474    -0.0036    -0.4506     0 
O27      O      1.2125     0.0395    -0.4705     0 
O28      O      0.9695     0.3485    -0.3865     0 
O29      O      1.2279     0.0599    -0.5321     0 
O30      O      1.2737     0.0317    -0.5593     0 
O31      O      0.8561     0.4561    -0.4029     0 
O32      O      0.4333     0.5493    -0.0937     0 
O33      O      0.3831     0.5621    -0.0719     0 
O34      O      0.9068     0.0878    -0.4462     0 
O35      O      1.4345     0.0815    -0.4495     0 
O36      O      1.4076     0.0536    -0.4124     0 
C1       C      0.9573     0.0873    -0.4197     0 
C2       C      0.9286     0.0606    -0.4384     0 
C3       C      0.8774     0.0474    -0.3326     0 
C4       C      0.7137     0.0617    -0.4613     0 
C5       C      0.5771     0.2491    -0.0759     0 
C6       C      1.1745     0.0165    -0.4695     0 
C7       C      0.979      0.329     -0.393      0 
C8       C      1.3184     0.1054    -0.3726     0 
C9       C      0.8326     0.4516    -0.3764     0 
C10      C      0.8179     0.1269    -0.3931     0 
C11      C      0.7894     0.1354    -0.3896     0 
C12      C      0.7418     0.1298    -0.3562     0 
H12A     H      0.7255     0.1243    -0.3362     0 
C13      C      0.7656     0.1266    -0.3594     0 
H13A     H      0.7666     0.1182    -0.3415     0 
C14      C      0.6802     0.1372    -0.3728     0 
C15      C      0.6892     0.1312    -0.3938     0 
H15A     H      0.7083     0.1312    -0.4123     0 
C16      C      0.6707     0.1237    -0.3873     0 
C17      C      0.6424     0.1244    -0.3606     0 
H17A     H      0.6299     0.1191    -0.356      0 
C18      C      0.6334     0.1304    -0.3396     0 
C19      C      0.6518     0.1378    -0.3462     0 
H19A     H      0.6458     0.1416    -0.3317     0 
C20      C      0.56       0.116     -0.256      0 
C21      C      0.551      0.121     -0.234      0 
H21A     H      0.5632     0.1258    -0.2378     0 
C22      C      0.5254     0.1164    -0.2056     0 
H22A     H      0.5194     0.1192    -0.1901     0 
C23      C      0.5069     0.1089    -0.1991     0 
C24      C      0.517      0.103     -0.221      0 
H24A     H      0.5049     0.0975    -0.2169     0 
C25      C      0.5425     0.1075    -0.2495     0 
H25A     H      0.5488     0.1043    -0.2646     0 
C26      C      0.477      0.108     -0.171      0 
C27      C      0.6964     0.0904    -0.4346     0 
C28      C      0.7279     0.0799    -0.4781     0 
H28A     H      0.7431     0.0834    -0.4992     0 
C29      C      0.7192     0.0942    -0.4648     0 
H29A     H      0.7286     0.1071    -0.4766     0 
C30      C      0.7865     0.1495    -0.4155     0 
H30A     H      0.8022     0.1564    -0.436      0 
C31      C      0.7627     0.1527    -0.4123     0 
H31A     H      0.7611     0.1626    -0.4305     0 
C32      C      0.7398     0.1438    -0.3832     0 
C33      C      0.6805     0.1145    -0.4065     0 
C34      C      0.688      0.104     -0.42       0 
C35      C      0.5856     0.1216    -0.2854     0 
C36      C      0.607      0.126     -0.31       0 
C37      C      0.7183     0.1423    -0.3797     0 
C38      C      0.7008     0.1408    -0.3772     0 
C39      C      0.6813     0.0733    -0.4177     0 
H39A     H      0.6655     0.0706    -0.3968     0 
C40      C      0.6899     0.0589    -0.4311     0 
H40A     H      0.6799     0.0466    -0.4193     0 
C41      C      0.8483     0.1553    -0.3757     0 
C42      C      0.8331     0.1741    -0.3619     0 
C43      C      0.7942     0.1872    -0.3178     0 
H43A     H      0.7761     0.1864    -0.2986     0 
C44      C      0.8063     0.1733    -0.3337     0 
H44A     H      0.796      0.1626    -0.3244     0 
C45      C      0.7841     0.2281    -0.2769     0 
C46      C      0.8033     0.2363    -0.2857     0 
H46A     H      0.8218     0.2366    -0.3045     0 
C47      C      0.7945     0.2445    -0.2665     0 
C48      C      0.7674     0.2434    -0.2386     0 
H48A     H      0.7614     0.2487    -0.2253     0 
C49      C      0.7482     0.2362    -0.2308     0 
C50      C      0.757      0.228     -0.25       0 
H50A     H      0.7442     0.2219    -0.244      0 
C51      C      0.6657     0.2407    -0.1543     0 
C52      C      0.6486     0.2296    -0.1444     0 
H52A     H      0.6575     0.2186    -0.1543     0 
C53      C      0.6194     0.2324    -0.1186     0 
H53A     H      0.6086     0.2233    -0.1113     0 
C54      C      0.6072     0.2472    -0.1038     0 
C55      C      0.6233     0.2603    -0.1147     0 
H55A     H      0.6152     0.2704    -0.1047     0 
C56      C      0.6525     0.2575    -0.1405     0 
H56A     H      0.664      0.2655    -0.1477     0 
C57      C      0.8409     0.2819    -0.2981     0 
C58      C      0.8813     0.3003    -0.3407     0 
H58A     H      0.9003     0.2999    -0.359      0 
C59      C      0.869      0.281     -0.325      0 
H59A     H      0.8791     0.2683    -0.3335     0 
C60      C      0.8469     0.1909    -0.3751     0 
H60A     H      0.8638     0.1937    -0.3954     0 
C61      C      0.8348     0.2058    -0.3602     0 
H61A     H      0.8439     0.2175    -0.3693     0 
C62      C      0.809      0.203     -0.331      0 
C63      C      0.8118     0.2558    -0.2762     0 
C64      C      0.826      0.267     -0.286      0 
C65      C      0.6949     0.2389    -0.1811     0 
C66      C      0.72       0.236     -0.203      0 
C67      C      0.7994     0.2134    -0.3126     0 
C68      C      0.7927     0.2207    -0.2973     0 
C69      C      0.8253     0.3013    -0.2857     0 
H69A     H      0.8069     0.3016    -0.2673     0 
C70      C      0.8378     0.3208    -0.3012     0 
H70A     H      0.8279     0.3333    -0.2927     0 
C71      C      0.8657     0.3207    -0.3293     0 
C72      C      0.8772     0.3422    -0.3458     0 
C73      C      1.2252     0.0242    -0.4538     0 
C74      C      1.2147     0.0377    -0.4373     0 
C75      C      1.1811     0.0811    -0.4249     0 
H75A     H      1.1648     0.1016    -0.4267     0 
C76      C      1.1899     0.0689    -0.4401     0 
H76A     H      1.18       0.0796    -0.4517     0 
C77      C      1.1695     0.1115    -0.3735     0 
C78      C      1.1879     0.1049    -0.3661     0 
H78A     H      1.2069     0.0863    -0.3656     0 
C79      C      1.179      0.127     -0.361      0 
C80      C      1.1516     0.1536    -0.3614     0 
H80A     H      1.1455     0.1681    -0.3575     0 
C81      C      1.1332     0.1602    -0.3688     0 
C82      C      1.1421     0.1391    -0.3749     0 
H82A     H      1.1294     0.1433    -0.3793     0 
C83      C      1.0607     0.2437    -0.3843     0 
C84      C      1.0432     0.2502    -0.3928     0 
H84A     H      1.0492     0.2353    -0.3962     0 
C85      C      1.0176     0.2786    -0.3974     0 
H85A     H      1.0056     0.2832    -0.4032     0 
C86      C      1.0086     0.3016    -0.3934     0 
C87      C      1.0261     0.2961    -0.3859     0 
H87A     H      1.0209     0.3108    -0.3834     0 
C88      C      1.0526     0.2666    -0.3814     0 
H88A     H      1.0645     0.263     -0.3765     0 
C89      C      1.2404     0.1164    -0.3566     0 
C90      C      1.2888     0.0828    -0.3522     0 
H90A     H      1.3047     0.0627    -0.3465     0 
C91      C      1.2641     0.0861    -0.3479     0 
H91A     H      1.263      0.0683    -0.3392     0 
C92      C      1.2289     0.0209    -0.4191     0 
H92A     H      1.2451     0.0005    -0.417      0 
C93      C      1.2202     0.0342    -0.4048     0 
H93A     H      1.2297     0.0227    -0.3923     0 
C94      C      1.1963     0.0643    -0.4077     0 
C95      C      1.1995     0.1225    -0.3575     0 
C96      C      1.218      0.119     -0.356      0 
C97      C      1.0863     0.2143    -0.3787     0 
C98      C      1.1077     0.1897    -0.3743     0 
C99      C      1.1879     0.0789    -0.3941     0 
C100     C      1.1803     0.0923    -0.3837     0 
C101     C      1.2415     0.1415    -0.3675     0 
H10A     H      1.2247     0.1623    -0.3727     0 
C102     C      1.2663     0.1383    -0.3717     0 
H10B     H      1.2663     0.1567    -0.3796     0 
C103     C      1.2909     0.1089    -0.3651     0 
C104     C      1.2504     0.0874    -0.5866     0 
C105     C      1.2263     0.1443    -0.6137     0 
H10C     H      1.2096     0.1633    -0.6124     0 
C106     C      1.2263     0.1163    -0.5857     0 
H10D     H      1.2094     0.1171    -0.5663     0 
C107     C      1.2508     0.2238    -0.7222     0 
C108     C      1.2788     0.2228    -0.7492     0 
H10E     H      1.2972     0.2047    -0.7495     0 
C109     C      1.2506     0.1436    -0.6424     0 
C110     C      1.2757     0.0867    -0.6163     0 
H11A     H      1.2925     0.0669    -0.6169     0 
C111     C      1.2758     0.1138    -0.6432     0 
H11B     H      1.2926     0.1134    -0.6629     0 
C112     C      1.2507     0.1947    -0.6933     0 
C113     C      1.2507     0.1717    -0.6703     0 
C114     C      1.2503     0.0583    -0.5577     0 
C115     C      0.874      0.021     -0.301      0 
C116     C      0.8969    -0.0321    -0.2681     0 
H11C     H      0.9147    -0.0521    -0.2656     0 
C117     C      0.9001    -0.0079    -0.2979     0 
H11D     H      0.9189    -0.0108    -0.3153     0 
C118     C      0.8674    -0.1036    -0.1596     0 
C119     C      0.8404    -0.1046    -0.1316     0 
H11E     H      0.8213    -0.0861    -0.131      0 
C120     C      0.8457     0.0257    -0.2753     0 
H12B     H      0.8278     0.0451    -0.2771     0 
C121     C      0.8686    -0.0274    -0.2424     0 
C122     C      0.8425     0.0015    -0.2455     0 
H12C     H      0.8236     0.0035    -0.2274     0 
C123     C      0.867     -0.077     -0.187      0 
C124     C      0.8674    -0.0546    -0.2116     0 
C125     C      0.6597     0.6057    -0.3663     0 
C126     C      0.6607     0.6327    -0.3943     0 
H12D     H      0.6799     0.6315    -0.4126     0 
C127     C      0.7418     0.5288    -0.3682     0 
C128     C      0.7682     0.5322    -0.3968     0 
H12E     H      0.7659     0.5513    -0.4139     0 
C129     C      0.7978     0.5068    -0.3992     0 
H12F     H      0.8153     0.5096    -0.4186     0 
C130     C      0.802      0.477     -0.373      0 
C131     C      0.7756     0.4736    -0.3444     0 
H13B     H      0.7776     0.4543    -0.3268     0 
C132     C      0.746      0.499     -0.342      0 
H13C     H      0.7279     0.4965    -0.3223     0 
C133     C      0.6879     0.5769    -0.3651     0 
C134     C      0.7123     0.5543    -0.3657     0 
C135     C      1.0372     0.0362    -0.4188     0 
H13D     H      1.0489     0.0156    -0.4096     0 
C136     C      1.0076     0.0466    -0.4134     0 
H13E     H      1.0001     0.0312    -0.3992     0 
C137     C      0.9884     0.0784    -0.4266     0 
C138     C      0.9998     0.0998    -0.4462     0 
H13F     H      0.9874     0.1215    -0.4555     0 
C139     C      1.0294     0.0904    -0.4526     0 
H13G     H      1.0367     0.1059    -0.4667     0 
C140     C      1.0486     0.0586    -0.4394     0 
C141     C      1.1053     0.0183    -0.4477     0 
H14A     H      1.101      0.0057    -0.4437     0 
C142     C      1.0812     0.0482    -0.4478     0 
C143     C      1.0877     0.0677    -0.4543     0 
H14B     H      1.0723     0.0873    -0.4543     0 
C144     C      1.118      0.057     -0.461      0 
H14C     H      1.1224     0.0706    -0.4661     0 
C145     C      1.142      0.028     -0.462      0 
C146     C      1.1346     0.0086    -0.4544     0 
H14D     H      1.1506    -0.0112    -0.4548     0 
C147     C      0.4924     0.3664    -0.0476     0 
H14E     H      0.5125     0.3512    -0.048      0 
C148     C      0.4731     0.3591    -0.0399     0 
C149     C      0.4441     0.3821    -0.0399     0 
H14F     H      0.4305     0.3781    -0.0352     0 
C150     C      0.4333     0.4133    -0.0477     0 
H15B     H      0.4134     0.4283    -0.0473     0 
C151     C      0.4527     0.4197    -0.0543     0 
C152     C      0.4626     0.4656    -0.0834     0 
H15C     H      0.4844     0.4533    -0.0932     0 
C153     C      0.4413     0.4523    -0.0617     0 
C154     C      0.4096     0.4716    -0.0484     0 
H15D     H      0.3947     0.4636    -0.0342     0 
C155     C      0.4001     0.5011    -0.0549     0 
H15E     H      0.3785     0.5129    -0.0451     0 
C156     C      0.4215     0.5125    -0.0745     0 
C157     C      0.4532     0.4942    -0.0888     0 
H15F     H      0.4683     0.502     -0.1033     0 
C158     C      0.4126     0.5426    -0.0804     0 
C159     C      0.4847     0.3267    -0.0323     0 
C160     C      0.9938    -0.0022    -0.4672     0 
H16A     H      1.0114    -0.022     -0.4629     0 
C161     C      0.9744     0.0134    -0.4496     0 
H16B     H      0.9779     0.0053    -0.4339     0 
C162     C      0.9484     0.0414    -0.4546     0 
C163     C      0.9427     0.0527    -0.4773     0 
H16C     H      0.9244     0.0719    -0.4806     0 
C164     C      0.9621     0.0371    -0.4949     0 
H16D     H      0.9576     0.0448    -0.5095     0 
C165     C      0.9891     0.0081    -0.4899     0 
C166     C      1.4618     0.0058    -0.4632     0 
H16E     H      1.4571    -0.0088    -0.4556     0 
C167     C      1.4424     0.0234    -0.4476     0 
H16F     H      1.4243     0.02      -0.4285     0 
C168     C      1.4482     0.0452    -0.4578     0 
C169     C      1.4742     0.0512    -0.4868     0 
H16G     H      1.4789     0.0655    -0.4944     0 
C170     C      1.4945     0.0325    -0.5025     0 
H17B     H      1.5121     0.0366    -0.5218     0 
C171     C      1.4888     0.0098    -0.4912     0 
C172     C      1.4293     0.0613    -0.4397     0 
C173     C      0.7241     0.0451    -0.4749     0 
C174     C      0.4817     0.3967    -0.0543     0 
H17C     H      0.4951     0.401     -0.0591     0 


