data_MOF-1-Dybtsev-dmol

_audit_creation_method RASPA-1.0
_audit_creation_date 2011-16-11
_audit_author_name 'David Dubbeldam'

_citation_author_name        'D. N. Dybtsev, H. Chun, and K. Kim'
_citation_title              'Rigid and flexible: A highly porous metal-organic framework with unusual guest-dependent dynamic behavior'
_citation_journal_abbrev     'Ang. Chem. Int. Ed.'
_citation_journal_volume     43
_citation_journal_number     38
_citation_page_first         5033
_citation_page_last          5036
_citation_year               2004

_cell_length_a    10.9288
_cell_length_b    10.9288
_cell_length_c    9.6084
_cell_angle_alpha 90
_cell_angle_beta  90
_cell_angle_gamma 90

_symmetry_cell_setting          orthorhombic
_symmetry_space_group_name_Hall 'P 1'
_symmetry_space_group_name_H-M  'P 1'
_symmetry_Int_Tables_number     1

_symmetry_equiv_pos_as_xyz 'x,y,z'

loop_
_atom_site_label
_atom_site_type_symbol
_atom_site_fract_x
_atom_site_fract_y
_atom_site_fract_z
H2       H      0.52564    0.32803    0.37672
H2       H      0.62924    0.64450    0.37538
H2       H      0.30409    0.57561    0.37573
O2       O      0.67246    0.49477    0.88179
O2       O      0.30198    0.52543    0.88171
H2       H      0.41414    0.69366    0.62442
O2       O      0.47326    0.32697    0.88172
H2       H      0.36882    0.36388    0.62404
O2       O      0.50423    0.69745    0.88156
H2       H      0.67643    0.49043    0.62317
H2       H      0.62872    0.64505    0.62420
H2       H      0.52625    0.32819    0.62297
H2       H      0.30389    0.57497    0.62387
O2       O      0.30198    0.52551    0.11835
H2       H      0.41481    0.69388    0.37593
O2       O      0.67247    0.49469    0.11831
O2       O      0.50432    0.69742    0.11832
H2       H      0.67632    0.48972    0.37723
O2       O      0.47317    0.32699    0.11821
H2       H      0.36833    0.36425    0.37630
Zn1      Zn     0.48774    0.51207    0.14773
N1       N      0.48635    0.51599    0.36686
Zn1      Zn     0.48774    0.51208    0.85226
N1       N      0.48634    0.51601    0.63313
C1       C      0.24986    0.52289    0.00003
C2       C      0.11415    0.51507    0.00004
C1       C      0.72467    0.49490    0.00005
C2       C      0.86065    0.49807    0.00004
C1       C      0.47507    0.27484   -0.00003
C2       C      0.48161    0.13903   -0.00002
C1       C      0.50334    0.74961   -0.00005
C2       C      0.49881    0.88552   -0.00003
C3       C      0.05077    0.51052    0.87352
H1       H      0.10268    0.51361    0.77660
C3       C      0.92408    0.50172    0.87355
H1       H      0.87216    0.49898    0.77662
C3       C      0.48596    0.07564    0.87346
H1       H      0.48300    0.12757    0.77655
C3       C      0.49487    0.94896    0.87346
H1       H      0.49783    0.89702    0.77655
C3       C      0.92408    0.50174    0.12653
H1       H      0.87216    0.49901    0.22345
C3       C      0.05077    0.51054    0.12655
H1       H      0.10268    0.51365    0.22347
C3       C      0.48591    0.07564    0.12649
H1       H      0.48290    0.12756    0.22341
C3       C      0.49483    0.94894    0.12648
H1       H      0.49775    0.89699    0.22339
C4       C      0.45739    0.39131    0.41987
C4       C      0.60872    0.55394    0.41976
C4       C      0.39267    0.60351    0.41965
C4       C      0.39247    0.60331    0.58033
C4       C      0.45764    0.39126    0.58014
C4       C      0.60863    0.55424    0.5802 
