data_NU-100SP-primtive

_audit_creation_method RASPA-1.0
_audit_creation_date 2011-11-12
_audit_author_name 'David Dubbeldam'

_citation_author_name        'O.K. Farha, A.O. Yazaydin, I. Eryazici, C.D. Malliakas, B.G. Hauser, and M.G. Kanatzidis, S.T. Nguyen, R.Q. Snurr, and J.T. Hupp'
_citation_title              'De novo synthesis of a metal-organic framework material featuring ultrahigh surface area and gas storage capacities'
_citation_journal_abbrev     'Nat. Chem.'
_citation_journal_volume     2
_citation_journal_number     11
_citation_page_first         944
_citation_page_last          948
_citation_year               2010

_cell_length_a    42.3359
_cell_length_b    42.3359
_cell_length_c    42.3359
_cell_angle_alpha 60.0
_cell_angle_beta  60.0
_cell_angle_gamma 60.0

_symmetry_cell_setting          triclinic
_symmetry_space_group_name_Hall 'P 1'
_symmetry_space_group_name_H-M  'P 1'
_symmetry_Int_Tables_number     1

_symmetry_equiv_pos_as_xyz 'x,y,z'

loop_
_atom_site_label
_atom_site_type_symbol
_atom_site_fract_x
_atom_site_fract_y
_atom_site_fract_z
_atom_site_charge
C1       C      0.2499     0.0140     0.8106   0 
C1       C      0.0745     0.1894     0.7501   0
C1       C      0.9860     0.0745     0.1894   0
C1       C      0.2499     0.9255     0.0140   0
C1       C      0.0140     0.9254     0.8106   0
C1       C      0.9860     0.7501     0.1894   0
C1       C      0.2499     0.8106     0.0140   0
C1       C      0.1894     0.9860     0.7501   0
C1       C      0.0745     0.7501     0.9860   0
C1       C      0.8106     0.9255     0.0140   0
C1       C      0.7501     0.0745     0.1894   0
C1       C      0.9254     0.0140     0.2500   0
C1       C      0.2499     0.8106     0.9255   0
C1       C      0.8106     0.9255     0.2499   0
C1       C      0.0140     0.9254     0.2500   0
C1       C      0.7501     0.9860     0.0745   0
C1       C      0.9255     0.8106     0.2499   0
C1       C      0.9254     0.8106     0.0140   0
C1       C      0.7501     0.1894     0.0745   0
C1       C      0.7500     0.9860     0.1894   0
C1       C      0.0140     0.2499     0.9255   0
C1       C      0.0745     0.9860     0.7501   0
C1       C      0.0745     0.7501     0.1894   0
C1       C      0.2499     0.0140     0.9255   0
C1       C      0.8106     0.2499     0.9255   0
C1       C      0.1894     0.7501     0.9860   0
C1       C      0.9860     0.7501     0.0745   0
C1       C      0.0140     0.2499     0.8106   0
C1       C      0.9860     0.1894     0.0745   0
C1       C      0.9254     0.0140     0.8106   0
C1       C      0.0745     0.1894     0.9860   0
C1       C      0.0745     0.9860     0.1894   0
C1       C      0.1894     0.0745     0.7501   0
C1       C      0.9254     0.2500     0.0140   0
C1       C      0.1894     0.7501     0.0745   0
C1       C      0.7501     0.0745     0.9860   0
C1       C      0.8106     0.0140     0.2499   0
C1       C      0.9860     0.1894     0.7501   0
C1       C      0.8106     0.2499     0.0140   0
C1       C      0.7501     0.1894     0.9860   0
C1       C      0.2499     0.9255     0.8106   0
C1       C      0.9860     0.0745     0.7501   0
C1       C      0.0140     0.8106     0.9254   0
C1       C      0.1894     0.9860     0.0745   0
C1       C      0.1894     0.0745     0.9860   0
C1       C      0.8106     0.0140     0.9255   0
C1       C      0.9255     0.2499     0.8106   0
C1       C      0.0140     0.8106     0.2499   0
C2       C      0.1135     0.1702     0.9857   0
C2       C      0.8298     0.0143     0.8864   0
C2       C      0.1702     0.1135     0.7306   0
C2       C      0.1136     0.9857     0.1702   0
C2       C      0.0143     0.8298     0.2694   0
C2       C      0.0143     0.8298     0.8864   0
C2       C      0.8298     0.8864     0.0143   0
C2       C      0.8865     0.0143     0.2694   0
C2       C      0.8864     0.2694     0.0143   0
C2       C      0.9857     0.1135     0.7306   0
C2       C      0.1135     0.1702     0.7306   0
C2       C      0.1702     0.7306     0.9857   0
C2       C      0.2694     0.8865     0.0143   0
C2       C      0.2694     0.8298     0.8864   0
C2       C      0.0143     0.2694     0.8865   0
C2       C      0.7306     0.9857     0.1702   0
C2       C      0.1702     0.9857     0.7306   0
C2       C      0.9857     0.7306     0.1702   0
C2       C      0.1702     0.7306     0.1135   0
C2       C      0.9857     0.1702     0.1136   0
C2       C      0.0143     0.8864     0.8298   0
C2       C      0.1702     0.9857     0.1135   0
C2       C      0.7306     0.1136     0.9857   0
C2       C      0.1136     0.7306     0.9857   0
C2       C      0.2694     0.8298     0.0143   0
C2       C      0.8298     0.8864     0.2694   0
C2       C      0.7306     0.1135     0.1702   0
C2       C      0.0143     0.8865     0.2694   0
C2       C      0.8864     0.8298     0.2694   0
C2       C      0.7306     0.1702     0.1136   0
C2       C      0.8298     0.0143     0.2694   0
C2       C      0.7306     0.9857     0.1136   0
C2       C      0.1135     0.9857     0.7306   0
C2       C      0.8864     0.8298     0.0143   0
C2       C      0.1702     0.1135     0.9857   0
C2       C      0.8298     0.2694     0.0143   0
C2       C      0.9857     0.1136     0.1702   0
C2       C      0.9857     0.1702     0.7306   0
C2       C      0.8298     0.2694     0.8864   0
C2       C      0.2694     0.0143     0.8865   0
C2       C      0.7306     0.1702     0.9857   0
C2       C      0.2694     0.0143     0.8298   0
C2       C      0.0143     0.2694     0.8298   0
C2       C      0.8864     0.2694     0.8298   0
C2       C      0.9857     0.7306     0.1136   0
C2       C      0.2694     0.8864     0.8298   0
C2       C      0.1135     0.7306     0.1702   0
C2       C      0.8864     0.0143     0.8298   0
C3       C      0.8670     0.2525     0.8670   0
C3       C      0.7475     0.1330     0.9865   0
C3       C      0.9865     0.1330     0.7475   0
C3       C      0.7475     0.9865     0.1330   0
C3       C      0.1330     0.1330     0.9865   0
C3       C      0.9865     0.7475     0.1330   0
C3       C      0.1330     0.1330     0.7475   0
C3       C      0.2525     0.8670     0.0135   0
C3       C      0.8670     0.8670     0.2525   0
C3       C      0.8670     0.0135     0.8670   0
C3       C      0.0135     0.8670     0.2525   0
C3       C      0.8670     0.8670     0.0135   0
C3       C      0.0135     0.2525     0.8670   0
C3       C      0.2525     0.0135     0.8670   0
C3       C      0.9865     0.1330     0.1330   0
C3       C      0.8670     0.2525     0.0135   0
C3       C      0.7475     0.1330     0.1330   0
C3       C      0.8670     0.0135     0.2525   0
C3       C      0.1330     0.9865     0.7475   0
C3       C      0.1330     0.7475     0.9865   0
C3       C      0.0135     0.8670     0.8670   0
C3       C      0.1330     0.9865     0.1330   0
C3       C      0.1330     0.7475     0.1330   0
C3       C      0.2525     0.8670     0.8670   0
C4       C      0.6939     0.1335     0.1909   0
C4       C      0.1335     0.9817     0.6939   0
C4       C      0.0183     0.8665     0.3061   0
C4       C      0.9817     0.1335     0.1909   0
C4       C      0.8091     0.8665     0.0183   0
C4       C      0.6939     0.1909     0.1335   0
C4       C      0.8665     0.8091     0.3061   0
C4       C      0.3061     0.0183     0.8665   0
C4       C      0.1335     0.6939     0.9817   0
C4       C      0.0183     0.3061     0.8091   0
C4       C      0.9817     0.1909     0.1335   0
C4       C      0.1335     0.9817     0.1909   0
C4       C      0.1909     0.6939     0.1335   0
C4       C      0.6939     0.1909     0.9817   0
C4       C      0.9817     0.1335     0.6939   0
C4       C      0.1909     0.1335     0.9817   0
C4       C      0.1335     0.1909     0.6939   0
C4       C      0.9817     0.6939     0.1909   0
C4       C      0.3061     0.8091     0.8665   0
C4       C      0.6939     0.9817     0.1335   0
C4       C      0.1909     0.1335     0.6939   0
C4       C      0.0183     0.8665     0.8091   0
C4       C      0.8665     0.0183     0.3061   0
C4       C      0.8091     0.3061     0.0183   0
C4       C      0.3061     0.0183     0.8091   0
C4       C      0.0183     0.3061     0.8665   0
C4       C      0.8665     0.8091     0.0183   0
C4       C      0.8091     0.8665     0.3061   0
C4       C      0.3061     0.8665     0.0183   0
C4       C      0.1909     0.9817     0.6939   0
C4       C      0.0183     0.8091     0.3061   0
C4       C      0.8665     0.3061     0.8091   0
C4       C      0.8091     0.0183     0.8665   0
C4       C      0.0183     0.8091     0.8665   0
C4       C      0.1909     0.9817     0.1335   0
C4       C      0.1335     0.6939     0.1909   0
C4       C      0.3061     0.8665     0.8091   0
C4       C      0.9817     0.1909     0.6939   0
C4       C      0.8091     0.0183     0.3061   0
C4       C      0.6939     0.1335     0.9817   0
C4       C      0.8665     0.3061     0.0183   0
C4       C      0.8665     0.0183     0.8091   0
C4       C      0.1335     0.1909     0.9817   0
C4       C      0.9817     0.6939     0.1335   0
C4       C      0.8091     0.3061     0.8665   0
C4       C      0.6939     0.9817     0.1909   0
C4       C      0.3061     0.8091     0.0183   0
C4       C      0.1909     0.6939     0.9817   0
C5       C      0.8273     0.3223     0.0231   0
C5       C      0.3223     0.0231     0.8273   0
C5       C      0.8273     0.0231     0.8273   0
C5       C      0.8273     0.8273     0.3223   0
C5       C      0.8273     0.8273     0.0231   0
C5       C      0.0231     0.8273     0.3223   0
C5       C      0.1727     0.6777     0.1727   0
C5       C      0.0231     0.3223     0.8273   0
C5       C      0.3223     0.8273     0.8273   0
C5       C      0.9769     0.1727     0.6777   0
C5       C      0.1727     0.1727     0.9769   0
C5       C      0.8273     0.3223     0.8273   0
C5       C      0.6777     0.1727     0.9769   0
C5       C      0.3223     0.8273     0.0231   0
C5       C      0.1727     0.9769     0.1727   0
C5       C      0.0231     0.8273     0.8273   0
C5       C      0.6777     0.9769     0.1727   0
C5       C      0.1727     0.6777     0.9769   0
C5       C      0.9769     0.6777     0.1727   0
C5       C      0.8273     0.0231     0.3223   0
C5       C      0.1727     0.9769     0.6777   0
C5       C      0.1727     0.1727     0.6777   0
C5       C      0.6777     0.1727     0.1727   0
C5       C      0.9769     0.1727     0.1727   0
C6       C      0.8063     0.3619     0.8063   0
C6       C      0.9745     0.1937     0.6381   0
C6       C      0.0255     0.8063     0.8063   0
C6       C      0.6381     0.1937     0.1937   0
C6       C      0.1937     0.9745     0.1937   0
C6       C      0.8063     0.0255     0.8063   0
C6       C      0.1937     0.1937     0.9745   0
C6       C      0.8063     0.3619     0.0255   0
C6       C      0.1937     0.1937     0.6381   0
C6       C      0.3619     0.8063     0.0255   0
C6       C      0.9745     0.6381     0.1937   0
C6       C      0.1937     0.6381     0.9745   0
C6       C      0.6381     0.1937     0.9745   0
C6       C      0.8063     0.8063     0.3619   0
C6       C      0.3619     0.8063     0.8063   0
C6       C      0.6381     0.9745     0.1937   0
C6       C      0.8063     0.0255     0.3619   0
C6       C      0.0255     0.8063     0.3619   0
C6       C      0.1937     0.9745     0.6381   0
C6       C      0.9745     0.1937     0.1937   0
C6       C      0.3619     0.0255     0.8063   0
C6       C      0.8063     0.8063     0.0255   0
C6       C      0.1937     0.6381     0.1937   0
C6       C      0.0255     0.3619     0.8063   0
C7       C      0.2104     0.2104     0.9726   0
C7       C      0.2104     0.9726     0.6066   0
C7       C      0.7896     0.0274     0.7896   0
C7       C      0.2104     0.9726     0.2104   0
C7       C      0.6066     0.9726     0.2104   0
C7       C      0.7896     0.3934     0.0274   0
C7       C      0.9726     0.2104     0.6066   0
C7       C      0.2104     0.2104     0.6066   0
C7       C      0.0274     0.7896     0.7896   0
C7       C      0.7896     0.7896     0.3934   0
C7       C      0.6066     0.2104     0.9726   0
C7       C      0.0274     0.3934     0.7896   0
C7       C      0.7896     0.3934     0.7896   0
C7       C      0.3934     0.7896     0.0274   0
C7       C      0.6066     0.2104     0.2104   0
C7       C      0.7896     0.7896     0.0274   0
C7       C      0.3934     0.0274     0.7896   0
C7       C      0.9726     0.6066     0.2104   0
C7       C      0.0274     0.7896     0.3934   0
C7       C      0.9726     0.2104     0.2104   0
C7       C      0.2104     0.6066     0.9726   0
C7       C      0.3934     0.7896     0.7896   0
C7       C      0.7896     0.0274     0.3934   0
C7       C      0.2104     0.6066     0.2104   0
C8       C      0.2316     0.2316     0.9702   0
C8       C      0.9702     0.2316     0.5666   0
C8       C      0.5666     0.9702     0.2316   0
C8       C      0.5666     0.2316     0.9702   0
C8       C      0.7684     0.4334     0.7684   0
C8       C      0.4334     0.7684     0.7684   0
C8       C      0.4334     0.7684     0.0298   0
C8       C      0.2316     0.5666     0.2316   0
C8       C      0.2316     0.9702     0.2316   0
C8       C      0.7684     0.0298     0.7684   0
C8       C      0.0298     0.7684     0.7684   0
C8       C      0.2316     0.5666     0.9702   0
C8       C      0.0298     0.7684     0.4334   0
C8       C      0.2316     0.9702     0.5666   0
C8       C      0.7684     0.0298     0.4334   0
C8       C      0.5666     0.2316     0.2316   0
C8       C      0.7684     0.4334     0.0298   0
C8       C      0.9702     0.2316     0.2316   0
C8       C      0.4334     0.0298     0.7684   0
C8       C      0.0298     0.4334     0.7684   0
C8       C      0.7684     0.7684     0.0298   0
C8       C      0.7684     0.7684     0.4334   0
C8       C      0.2316     0.2316     0.5666   0
C8       C      0.9702     0.5666     0.2316   0
C9       C      0.4509     0.7341     0.7879   0
C9       C      0.7879     0.4509     0.0271   0
C9       C      0.0271     0.7341     0.7879   0
C9       C      0.2121     0.5491     0.2659   0
C9       C      0.2659     0.9729     0.5491   0
C9       C      0.5491     0.2121     0.9729   0
C9       C      0.0271     0.7879     0.4509   0
C9       C      0.2659     0.5491     0.2121   0
C9       C      0.2121     0.9729     0.5491   0
C9       C      0.4509     0.0271     0.7341   0
C9       C      0.7879     0.7341     0.4509   0
C9       C      0.9729     0.2121     0.5491   0
C9       C      0.7341     0.0271     0.4509   0
C9       C      0.5491     0.9729     0.2659   0
C9       C      0.4509     0.7341     0.0271   0
C9       C      0.2659     0.9729     0.2121   0
C9       C      0.5491     0.2659     0.2121   0
C9       C      0.0271     0.4509     0.7879   0
C9       C      0.7341     0.4509     0.7879   0
C9       C      0.4509     0.0271     0.7879   0
C9       C      0.7879     0.0271     0.7341   0
C9       C      0.2659     0.2121     0.5491   0
C9       C      0.7341     0.7879     0.0271   0
C9       C      0.5491     0.9729     0.2121   0
C9       C      0.0271     0.4509     0.7341   0
C9       C      0.2121     0.9729     0.2659   0
C9       C      0.2659     0.5491     0.9729   0
C9       C      0.9729     0.2121     0.2659   0
C9       C      0.7879     0.7341     0.0271   0
C9       C      0.2121     0.5491     0.9729   0
C9       C      0.9729     0.5491     0.2121   0
C9       C      0.2121     0.2659     0.9729   0
C9       C      0.7341     0.0271     0.7879   0
C9       C      0.5491     0.2121     0.2659   0
C9       C      0.2659     0.2121     0.9729   0
C9       C      0.7879     0.0271     0.4509   0
C9       C      0.7879     0.4509     0.7341   0
C9       C      0.0271     0.7879     0.7341   0
C9       C      0.9729     0.2659     0.2121   0
C9       C      0.2121     0.2659     0.5491   0
C9       C      0.0271     0.7341     0.4509   0
C9       C      0.4509     0.7879     0.0271   0
C9       C      0.7341     0.4509     0.0271   0
C9       C      0.9729     0.5491     0.2659   0
C9       C      0.7341     0.7879     0.4509   0
C9       C      0.5491     0.2659     0.9729   0
C9       C      0.4509     0.7879     0.7341   0
C9       C      0.9729     0.2659     0.5491   0
C10      C      0.7130     0.4886     0.7670   0
C10      C      0.9686     0.2870     0.2330   0
C10      C      0.5114     0.2330     0.2870   0
C10      C      0.2870     0.9686     0.5114   0
C10      C      0.2330     0.5114     0.9686   0
C10      C      0.2330     0.9686     0.2870   0
C10      C      0.2870     0.5114     0.2330   0
C10      C      0.5114     0.2870     0.9686   0
C10      C      0.9686     0.2330     0.5114   0
C10      C      0.2870     0.2330     0.9686   0
C10      C      0.2330     0.2870     0.5114   0
C10      C      0.9686     0.5114     0.2870   0
C10      C      0.5114     0.9686     0.2330   0
C10      C      0.4886     0.7130     0.7670   0
C10      C      0.0314     0.7670     0.7130   0
C10      C      0.7670     0.0314     0.4886   0
C10      C      0.7130     0.4886     0.0314   0
C10      C      0.4886     0.0314     0.7130   0
C10      C      0.0314     0.4886     0.7670   0
C10      C      0.7670     0.7130     0.0314   0
C10      C      0.7130     0.7670     0.4886   0
C10      C      0.4886     0.7670     0.0314   0
C10      C      0.0314     0.7130     0.4886   0
C10      C      0.7670     0.4886     0.7130   0
C10      C      0.7130     0.0314     0.7670   0
C10      C      0.0314     0.7130     0.7670   0
C10      C      0.4886     0.7670     0.7130   0
C10      C      0.7130     0.0314     0.4886   0
C10      C      0.7670     0.4886     0.0314   0
C10      C      0.7670     0.0314     0.7130   0
C10      C      0.4886     0.7130     0.0314   0
C10      C      0.0314     0.7670     0.4886   0
C10      C      0.7130     0.7670     0.0314   0
C10      C      0.7670     0.7130     0.4886   0
C10      C      0.0314     0.4886     0.7130   0
C10      C      0.4886     0.0314     0.7670   0
C10      C      0.5114     0.2870     0.2330   0
C10      C      0.9686     0.2330     0.2870   0
C10      C      0.2330     0.9686     0.5114   0
C10      C      0.2870     0.5114     0.9686   0
C10      C      0.5114     0.9686     0.2870   0
C10      C      0.9686     0.5114     0.2330   0
C10      C      0.2330     0.2870     0.9686   0
C10      C      0.2870     0.2330     0.5114   0
C10      C      0.5114     0.2330     0.9686   0
C10      C      0.9686     0.2870     0.5114   0
C10      C      0.2330     0.5114     0.2870   0
C10      C      0.2870     0.9686     0.2330   0
C11      C      0.5051     0.7291     0.7291   0
C11      C      0.0367     0.7291     0.7291   0
C11      C      0.7291     0.7291     0.5051   0
C11      C      0.9633     0.2709     0.4949   0
C11      C      0.2709     0.9633     0.2709   0
C11      C      0.4949     0.2709     0.9633   0
C11      C      0.7291     0.0367     0.7291   0
C11      C      0.2709     0.9633     0.4949   0
C11      C      0.7291     0.7291     0.0367   0
C11      C      0.7291     0.0367     0.5051   0
C11      C      0.4949     0.2709     0.2709   0
C11      C      0.9633     0.2709     0.2709   0
C11      C      0.2709     0.4949     0.2709   0
C11      C      0.0367     0.5051     0.7291   0
C11      C      0.7291     0.5051     0.0367   0
C11      C      0.2709     0.2709     0.9633   0
C11      C      0.2709     0.2709     0.4949   0
C11      C      0.9633     0.4949     0.2709   0
C11      C      0.2709     0.4949     0.9633   0
C11      C      0.4949     0.9633     0.2709   0
C11      C      0.7291     0.5051     0.7291   0
C11      C      0.5051     0.0367     0.7291   0
C11      C      0.0367     0.7291     0.5051   0
C11      C      0.5051     0.7291     0.0367   0
C12      C      0.5444     0.7096     0.0364   0
C12      C      0.4556     0.9636     0.2904   0
C12      C      0.4556     0.2904     0.9636   0
C12      C      0.2904     0.9636     0.4556   0
C12      C      0.2904     0.4556     0.2904   0
C12      C      0.7096     0.0364     0.7096   0
C12      C      0.7096     0.0364     0.5444   0
C12      C      0.2904     0.4556     0.9636   0
C12      C      0.2904     0.9636     0.2904   0
C12      C      0.7096     0.7096     0.0364   0
C12      C      0.5444     0.0364     0.7096   0
C12      C      0.7096     0.7096     0.5444   0
C12      C      0.0364     0.7096     0.7096   0
C12      C      0.5444     0.7096     0.7096   0
C12      C      0.0364     0.7096     0.5444   0
C12      C      0.7096     0.5444     0.0364   0
C12      C      0.7096     0.5444     0.7096   0
C12      C      0.9636     0.4556     0.2904   0
C12      C      0.0364     0.5444     0.7096   0
C12      C      0.2904     0.2904     0.4556   0
C12      C      0.2904     0.2904     0.9636   0
C12      C      0.9636     0.2904     0.4556   0
C12      C      0.9636     0.2904     0.2904   0
C12      C      0.4556     0.2904     0.2904   0
C13      C      0.0365     0.6923     0.5789   0
C13      C      0.6923     0.5789     0.6923   0
C13      C      0.4211     0.3077     0.9635   0
C13      C      0.6923     0.6923     0.5789   0
C13      C      0.0365     0.6923     0.6923   0
C13      C      0.6923     0.6923     0.0365   0
C13      C      0.9635     0.3077     0.4211   0
C13      C      0.5789     0.6923     0.0365   0
C13      C      0.3077     0.3077     0.4211   0
C13      C      0.3077     0.4211     0.9635   0
C13      C      0.5789     0.0365     0.6923   0
C13      C      0.3077     0.3077     0.9635   0
C13      C      0.0365     0.5789     0.6923   0
C13      C      0.5789     0.6923     0.6923   0
C13      C      0.4211     0.3077     0.3077   0
C13      C      0.6923     0.5789     0.0365   0
C13      C      0.6923     0.0365     0.5789   0
C13      C      0.3077     0.9635     0.4211   0
C13      C      0.3077     0.9635     0.3077   0
C13      C      0.6923     0.0365     0.6923   0
C13      C      0.9635     0.3077     0.3077   0
C13      C      0.3077     0.4211     0.3077   0
C13      C      0.9635     0.4211     0.3077   0
C13      C      0.4211     0.9635     0.3077   0
C14      C      0.9638     0.3266     0.3266   0
C14      C      0.9638     0.3830     0.3266   0
C14      C      0.3266     0.3266     0.3830   0
C14      C      0.3830     0.3266     0.3266   0
C14      C      0.6734     0.6170     0.0362   0
C14      C      0.0362     0.6734     0.6734   0
C14      C      0.6170     0.0362     0.6734   0
C14      C      0.9638     0.3266     0.3830   0
C14      C      0.3266     0.9638     0.3830   0
C14      C      0.0362     0.6170     0.6734   0
C14      C      0.0362     0.6734     0.6170   0
C14      C      0.3266     0.3830     0.9638   0
C14      C      0.3266     0.3266     0.9638   0
C14      C      0.6734     0.6734     0.6170   0
C14      C      0.6734     0.0362     0.6734   0
C14      C      0.6734     0.0362     0.6170   0
C14      C      0.6170     0.6734     0.6734   0
C14      C      0.3830     0.3266     0.9638   0
C14      C      0.3266     0.3830     0.3266   0
C14      C      0.6170     0.6734     0.0362   0
C14      C      0.6734     0.6734     0.0362   0
C14      C      0.3266     0.9638     0.3266   0
C14      C      0.3830     0.9638     0.3266   0
C14      C      0.6734     0.6170     0.6734   0
C15      C      0.6359     0.6359     0.0361   0
C15      C      0.6359     0.6921     0.0361   0
C15      C      0.0361     0.6359     0.6359   0
C15      C      0.3641     0.9639     0.3641   0
C15      C      0.6921     0.6359     0.0361   0
C15      C      0.3641     0.3079     0.9639   0
C15      C      0.9639     0.3641     0.3641   0
C15      C      0.6921     0.6359     0.6359   0
C15      C      0.3079     0.3641     0.9639   0
C15      C      0.6359     0.0361     0.6921   0
C15      C      0.6359     0.0361     0.6359   0
C15      C      0.6921     0.0361     0.6359   0
C15      C      0.0361     0.6359     0.6921   0
C15      C      0.3641     0.3079     0.3641   0
C15      C      0.3079     0.9639     0.3641   0
C15      C      0.6359     0.6921     0.6359   0
C15      C      0.3641     0.9639     0.3079   0
C15      C      0.9639     0.3079     0.3641   0
C15      C      0.3079     0.3641     0.3641   0
C15      C      0.0361     0.6921     0.6359   0
C15      C      0.3641     0.3641     0.3079   0
C15      C      0.3641     0.3641     0.9639   0
C15      C      0.9639     0.3641     0.3079   0
C15      C      0.6359     0.6359     0.6921   0
Cu1      Cu     0.2521     0.7479     0.0000   0
Cu1      Cu     0.7479     0.2521     0.0000   0
Cu1      Cu     0.0000     0.1892     0.0000   0
Cu1      Cu     0.0000     0.2521     0.0000   0
Cu1      Cu     0.8108     0.0000     0.1892   0
Cu1      Cu     0.7479     0.0000     0.2521   0
Cu1      Cu     0.1892     0.0000     0.8108   0
Cu1      Cu     0.2521     0.0000     0.7479   0
Cu1      Cu     0.0000     0.8108     0.0000   0
Cu1      Cu     0.0000     0.7479     0.0000   0
Cu1      Cu     0.0000     0.0000     0.1892   0
Cu1      Cu     0.0000     0.0000     0.2521   0
Cu1      Cu     0.1892     0.8108     0.0000   0
Cu1      Cu     0.8108     0.1892     0.0000   0
Cu1      Cu     0.0000     0.0000     0.8108   0
Cu1      Cu     0.0000     0.0000     0.7479   0
Cu1      Cu     0.1892     0.0000     0.0000   0
Cu1      Cu     0.2521     0.0000     0.0000   0
Cu1      Cu     0.0000     0.1892     0.8108   0
Cu1      Cu     0.0000     0.2521     0.7479   0
Cu1      Cu     0.0000     0.8108     0.1892   0
Cu1      Cu     0.0000     0.7479     0.2521   0
Cu1      Cu     0.8108     0.0000     0.0000   0
Cu1      Cu     0.7479     0.0000     0.0000   0
H1       H      0.9876     0.1200     0.7724   0
H1       H      0.2276     0.0124     0.8800   0
H1       H      0.0124     0.2276     0.8800   0
H1       H      0.8800     0.0124     0.2276   0
H1       H      0.9876     0.7724     0.1200   0
H1       H      0.1200     0.7724     0.9876   0
H1       H      0.2276     0.8800     0.0124   0
H1       H      0.7724     0.1200     0.1200   0
H1       H      0.9876     0.1200     0.1200   0
H1       H      0.8800     0.0124     0.8800   0
H1       H      0.8800     0.2276     0.0124   0
H1       H      0.7724     0.9876     0.1200   0
H1       H      0.8800     0.8800     0.0124   0
H1       H      0.1200     0.7724     0.1200   0
H1       H      0.1200     0.9876     0.7724   0
H1       H      0.8800     0.2276     0.8800   0
H1       H      0.0124     0.8800     0.8800   0
H1       H      0.1200     0.9876     0.1200   0
H1       H      0.8800     0.8800     0.2276   0
H1       H      0.2276     0.8800     0.8800   0
H1       H      0.0124     0.8800     0.2276   0
H1       H      0.1200     0.1200     0.9876   0
H1       H      0.7724     0.1200     0.9876   0
H1       H      0.1200     0.1200     0.7724   0
H2       H      0.2161     0.1209     0.6807   0
H2       H      0.8791     0.3193     0.0177   0
H2       H      0.9823     0.6807     0.2161   0
H2       H      0.9823     0.2161     0.1209   0
H2       H      0.1209     0.2161     0.6807   0
H2       H      0.2161     0.1209     0.9823   0
H2       H      0.9823     0.1209     0.6807   0
H2       H      0.6807     0.2161     0.9823   0
H2       H      0.6807     0.1209     0.9823   0
H2       H      0.2161     0.6807     0.9823   0
H2       H      0.2161     0.6807     0.1209   0
H2       H      0.1209     0.9823     0.2161   0
H2       H      0.7839     0.0177     0.3193   0
H2       H      0.1209     0.6807     0.9823   0
H2       H      0.2161     0.9823     0.6807   0
H2       H      0.3193     0.7839     0.0177   0
H2       H      0.6807     0.1209     0.2161   0
H2       H      0.9823     0.2161     0.6807   0
H2       H      0.0177     0.3193     0.7839   0
H2       H      0.3193     0.0177     0.8791   0
H2       H      0.8791     0.7839     0.3193   0
H2       H      0.3193     0.8791     0.7839   0
H2       H      0.1209     0.6807     0.2161   0
H2       H      0.0177     0.7839     0.8791   0
H2       H      0.2161     0.9823     0.1209   0
H2       H      0.7839     0.0177     0.8791   0
H2       H      0.7839     0.8791     0.0177   0
H2       H      0.8791     0.3193     0.7839   0
H2       H      0.9823     0.1209     0.2161   0
H2       H      0.6807     0.9823     0.2161   0
H2       H      0.0177     0.7839     0.3193   0
H2       H      0.7839     0.3193     0.8791   0
H2       H      0.9823     0.6807     0.1209   0
H2       H      0.3193     0.8791     0.0177   0
H2       H      0.7839     0.8791     0.3193   0
H2       H      0.0177     0.8791     0.3193   0
H2       H      0.1209     0.9823     0.6807   0
H2       H      0.8791     0.7839     0.0177   0
H2       H      0.0177     0.3193     0.8791   0
H2       H      0.6807     0.2161     0.1209   0
H2       H      0.8791     0.0177     0.7839   0
H2       H      0.3193     0.0177     0.7839   0
H2       H      0.1209     0.2161     0.9823   0
H2       H      0.7839     0.3193     0.0177   0
H2       H      0.8791     0.0177     0.3193   0
H2       H      0.0177     0.8791     0.7839   0
H2       H      0.3193     0.7839     0.8791   0
H2       H      0.6807     0.9823     0.1209   0
H3       H      0.7235     0.8143     0.0225   0
H3       H      0.9775     0.2765     0.1857   0
H3       H      0.2765     0.5603     0.9775   0
H3       H      0.4397     0.0225     0.8143   0
H3       H      0.0225     0.7235     0.8143   0
H3       H      0.0225     0.8143     0.7235   0
H3       H      0.8143     0.4397     0.0225   0
H3       H      0.2765     0.5603     0.1857   0
H3       H      0.8143     0.7235     0.4397   0
H3       H      0.1857     0.9775     0.5603   0
H3       H      0.7235     0.4397     0.8143   0
H3       H      0.5603     0.2765     0.1857   0
H3       H      0.1857     0.2765     0.5603   0
H3       H      0.8143     0.4397     0.7235   0
H3       H      0.4397     0.8143     0.0225   0
H3       H      0.7235     0.0225     0.4397   0
H3       H      0.4397     0.0225     0.7235   0
H3       H      0.1857     0.9775     0.2765   0
H3       H      0.9775     0.2765     0.5603   0
H3       H      0.0225     0.4397     0.8143   0
H3       H      0.2765     0.9775     0.1857   0
H3       H      0.1857     0.2765     0.9775   0
H3       H      0.4397     0.7235     0.0225   0
H3       H      0.0225     0.4397     0.7235   0
H3       H      0.5603     0.9775     0.2765   0
H3       H      0.8143     0.0225     0.7235   0
H3       H      0.2765     0.1857     0.9775   0
H3       H      0.7235     0.4397     0.0225   0
H3       H      0.5603     0.2765     0.9775   0
H3       H      0.9775     0.1857     0.2765   0
H3       H      0.4397     0.7235     0.8143   0
H3       H      0.9775     0.5603     0.2765   0
H3       H      0.9775     0.1857     0.5603   0
H3       H      0.9775     0.5603     0.1857   0
H3       H      0.7235     0.8143     0.4397   0
H3       H      0.0225     0.8143     0.4397   0
H3       H      0.5603     0.1857     0.2765   0
H3       H      0.5603     0.1857     0.9775   0
H3       H      0.7235     0.0225     0.8143   0
H3       H      0.2765     0.1857     0.5603   0
H3       H      0.8143     0.7235     0.0225   0
H3       H      0.1857     0.5603     0.9775   0
H3       H      0.5603     0.9775     0.1857   0
H3       H      0.2765     0.9775     0.5603   0
H3       H      0.1857     0.5603     0.2765   0
H3       H      0.4397     0.8143     0.7235   0
H3       H      0.0225     0.7235     0.4397   0
H3       H      0.8143     0.0225     0.4397   0
H4       H      0.2201     0.4985     0.3121   0
H4       H      0.9693     0.2201     0.3121   0
H4       H      0.6879     0.7799     0.5015   0
H4       H      0.9693     0.4985     0.2201   0
H4       H      0.5015     0.7799     0.0307   0
H4       H      0.6879     0.5015     0.7799   0
H4       H      0.7799     0.6879     0.0307   0
H4       H      0.0307     0.6879     0.5015   0
H4       H      0.7799     0.5015     0.6879   0
H4       H      0.0307     0.5015     0.7799   0
H4       H      0.7799     0.6879     0.5015   0
H4       H      0.4985     0.9693     0.3121   0
H4       H      0.6879     0.0307     0.7799   0
H4       H      0.5015     0.0307     0.6879   0
H4       H      0.3121     0.9693     0.2201   0
H4       H      0.0307     0.6879     0.7799   0
H4       H      0.9693     0.3121     0.2201   0
H4       H      0.6879     0.5015     0.0307   0
H4       H      0.3121     0.4985     0.2201   0
H4       H      0.5015     0.7799     0.6879   0
H4       H      0.7799     0.0307     0.5015   0
H4       H      0.5015     0.0307     0.7799   0
H4       H      0.0307     0.7799     0.6879   0
H4       H      0.5015     0.6879     0.0307   0
H4       H      0.0307     0.5015     0.6879   0
H4       H      0.0307     0.7799     0.5015   0
H4       H      0.5015     0.6879     0.7799   0
H4       H      0.9693     0.3121     0.4985   0
H4       H      0.2201     0.9693     0.4985   0
H4       H      0.6879     0.7799     0.0307   0
H4       H      0.7799     0.0307     0.6879   0
H4       H      0.4985     0.2201     0.3121   0
H4       H      0.3121     0.4985     0.9693   0
H4       H      0.4985     0.3121     0.9693   0
H4       H      0.4985     0.2201     0.9693   0
H4       H      0.4985     0.9693     0.2201   0
H4       H      0.2201     0.3121     0.9693   0
H4       H      0.3121     0.9693     0.4985   0
H4       H      0.7799     0.5015     0.0307   0
H4       H      0.9693     0.2201     0.4985   0
H4       H      0.2201     0.4985     0.9693   0
H4       H      0.9693     0.4985     0.3121   0
H4       H      0.3121     0.2201     0.4985   0
H4       H      0.4985     0.3121     0.2201   0
H4       H      0.2201     0.9693     0.3121   0
H4       H      0.2201     0.3121     0.4985   0
H4       H      0.3121     0.2201     0.9693   0
H4       H      0.6879     0.0307     0.5015   0
H5       H      0.6233     0.6233     0.7175   0
H5       H      0.6233     0.6233     0.0359   0
H5       H      0.9641     0.2825     0.3767   0
H5       H      0.6233     0.7175     0.0359   0
H5       H      0.7175     0.0359     0.6233   0
H5       H      0.3767     0.2825     0.3767   0
H5       H      0.9641     0.3767     0.3767   0
H5       H      0.2825     0.3767     0.3767   0
H5       H      0.6233     0.0359     0.7175   0
H5       H      0.0359     0.7175     0.6233   0
H5       H      0.3767     0.3767     0.2825   0
H5       H      0.6233     0.7175     0.6233   0
H5       H      0.3767     0.2825     0.9641   0
H5       H      0.3767     0.9641     0.3767   0
H5       H      0.3767     0.3767     0.9641   0
H5       H      0.3767     0.9641     0.2825   0
H5       H      0.7175     0.6233     0.6233   0
H5       H      0.7175     0.6233     0.0359   0
H5       H      0.0359     0.6233     0.7175   0
H5       H      0.9641     0.3767     0.2825   0
H5       H      0.0359     0.6233     0.6233   0
H5       H      0.2825     0.9641     0.3767   0
H5       H      0.6233     0.0359     0.6233   0
H5       H      0.2825     0.3767     0.9641   0
O2       O      0.7764     0.0099     0.9439   0
O2       O      0.8291     0.0093     0.9444   0
O2       O      0.9439     0.2698     0.7764   0
O2       O      0.9444     0.2172     0.8291   0
O2       O      0.0099     0.7764     0.2698   0
O2       O      0.0093     0.8291     0.2172   0
O2       O      0.2698     0.9439     0.0099   0
O2       O      0.2172     0.9444     0.0092   0
O2       O      0.7764     0.9439     0.2698   0
O2       O      0.8291     0.9444     0.2172   0
O2       O      0.9439     0.7764     0.0099   0
O2       O      0.9444     0.8291     0.0092   0
O2       O      0.0099     0.2698     0.9439   0
O2       O      0.0092     0.2172     0.9444   0
O2       O      0.2698     0.0099     0.7764   0
O2       O      0.2172     0.0092     0.8291   0
O2       O      0.7764     0.2698     0.0099   0
O2       O      0.8291     0.2172     0.0093   0
O2       O      0.9439     0.0099     0.2698   0
O2       O      0.9444     0.0092     0.2172   0
O2       O      0.0099     0.9439     0.7764   0
O2       O      0.2698     0.7764     0.9439   0
O2       O      0.2172     0.8291     0.9444   0
O2       O      0.7302     0.9901     0.0561   0
O2       O      0.7828     0.9907     0.0556   0
O2       O      0.9901     0.7302     0.2236   0
O2       O      0.9908     0.7828     0.1709   0
O2       O      0.0561     0.2236     0.7302   0
O2       O      0.0556     0.1709     0.7828   0
O2       O      0.2236     0.0561     0.9901   0
O2       O      0.1709     0.0556     0.9908   0
O2       O      0.9901     0.0561     0.7302   0
O2       O      0.9908     0.0556     0.7828   0
O2       O      0.7302     0.2236     0.9901   0
O2       O      0.7828     0.1709     0.9908   0
O2       O      0.2236     0.7302     0.0561   0
O2       O      0.1709     0.7828     0.0556   0
O2       O      0.0561     0.9901     0.2236   0
O2       O      0.0556     0.9908     0.1709   0
O2       O      0.0561     0.7302     0.9901   0
O2       O      0.0556     0.7828     0.9907   0
O2       O      0.2236     0.9901     0.7302   0
O2       O      0.1709     0.9908     0.7828   0
O2       O      0.7302     0.0561     0.2236   0
O2       O      0.7828     0.0556     0.1709   0
O2       O      0.0093     0.2172     0.8291   0
O2       O      0.0099     0.2698     0.7764   0
O2       O      0.2172     0.0092     0.9444   0
O2       O      0.2698     0.0099     0.9439   0
O2       O      0.9439     0.7764     0.2698   0
O2       O      0.9444     0.8291     0.2172   0
O2       O      0.0093     0.9444     0.8291   0
O2       O      0.7302     0.2236     0.0561   0
O2       O      0.7828     0.1709     0.0556   0
O2       O      0.7764     0.9439     0.0099   0
O2       O      0.9908     0.0556     0.1709   0
O2       O      0.9901     0.0561     0.2236   0
O2       O      0.8291     0.9444     0.0093   0
O2       O      0.9901     0.2236     0.0561   0
O2       O      0.0556     0.9908     0.7828   0
O2       O      0.0561     0.9901     0.7302   0
O2       O      0.0099     0.9439     0.2698   0
O2       O      0.0092     0.9444     0.2172   0
O2       O      0.1709     0.7828     0.9908   0
O2       O      0.2236     0.7302     0.9901   0
O2       O      0.9908     0.1709     0.0556   0
O2       O      0.2698     0.7764     0.0099   0
O2       O      0.2172     0.8291     0.0092   0
O2       O      0.7828     0.9908     0.1709   0
O2       O      0.7302     0.9901     0.2236   0
O2       O      0.7764     0.2698     0.9439   0
O2       O      0.8291     0.2172     0.9444   0
O2       O      0.9908     0.7828     0.0556   0
O2       O      0.9901     0.7302     0.0561   0
O2       O      0.0556     0.1709     0.9908   0
O2       O      0.0561     0.2236     0.9901   0
O2       O      0.9439     0.0099     0.7764   0
O2       O      0.9444     0.0092     0.8291   0
O2       O      0.1709     0.0556     0.7828   0
O2       O      0.2236     0.0561     0.7302   0
O2       O      0.9439     0.2698     0.0099   0
O2       O      0.9444     0.2172     0.0092   0
O2       O      0.7828     0.0556     0.9908   0
O2       O      0.7302     0.0561     0.9901   0
O2       O      0.7764     0.0099     0.2698   0
O2       O      0.8291     0.0093     0.2172   0
O2       O      0.9908     0.1709     0.7828   0
O2       O      0.9901     0.2236     0.7302   0
O2       O      0.2698     0.9439     0.7764   0
O2       O      0.2172     0.9444     0.8291   0
O2       O      0.0556     0.7828     0.1709   0
O2       O      0.0561     0.7302     0.2236   0
O2       O      0.1709     0.9908     0.0556   0
O2       O      0.2236     0.9901     0.0561   0
O2       O      0.0099     0.7764     0.9439   0
O2       O      0.0093     0.8291     0.9444   0

