data_PCN-68

_audit_creation_method RASPA-1.0
_audit_creation_date 2011-3-8
_audit_author_name 'David Dubbeldam'

_citation_author_name        'D.Q. Yuan, D. Zhao, D.F. Sun, and H.C. Zhou'
_citation_title              'An Isoreticular Series of Metal-Organic Frameworks with Dendritic Hexacarboxylate Ligands and Exceptionally High Gas-Uptake Capacity'
_citation_journal_abbrev     'Angew. Chem. Int. Ed.'
_citation_journal_volume     49
_citation_journal_number     31
_citation_page_first         5357
_citation_page_last          5361
_citation_year               2010

_cell_length_a    59.153
_cell_length_b    59.153
_cell_length_c    59.153
_cell_angle_alpha 90
_cell_angle_beta  90
_cell_angle_gamma 90
_cell_volume      206981

_symmetry_cell_setting          cubic
_symmetry_space_group_name_Hall '-F 4 2 3'
_symmetry_space_group_name_H-M  'F m -3 m'
_symmetry_Int_Tables_number     225

loop_
_symmetry_equiv_pos_as_xyz
 'x,y,z'
 '-x,-y,z'
 '-x,y,-z'
 'x,-y,-z'
 'z,x,y'
 'z,-x,-y'
 '-z,-x,y'
 '-z,x,-y'
 'y,z,x'
 '-y,z,-x'
 'y,-z,-x'
 '-y,-z,x'
 'y,x,-z'
 '-y,-x,-z'
 'y,-x,z'
 '-y,x,z'
 'x,z,-y'
 '-x,z,y'
 '-x,-z,-y'
 'x,-z,y'
 'z,y,-x'
 'z,-y,x'
 '-z,y,x'
 '-z,-y,-x'
 '-x,-y,-z'
 'x,y,-z'
 'x,-y,z'
 '-x,y,z'
 '-z,-x,-y'
 '-z,x,y'
 'z,x,-y'
 'z,-x,y'
 '-y,-z,-x'
 'y,-z,x'
 '-y,z,x'
 'y,z,-x'
 '-y,-x,z'
 'y,x,z'
 '-y,x,-z'
 'y,-x,-z'
 '-x,-z,y'
 'x,-z,-y'
 'x,z,y'
 '-x,z,-y'
 '-z,-y,x'
 '-z,y,-x'
 'z,-y,-x'
 'z,y,x'
 'x,y+1/2,z+1/2'
 '-x,-y+1/2,z+1/2'
 '-x,y+1/2,-z+1/2'
 'x,-y+1/2,-z+1/2'
 'z,x+1/2,y+1/2'
 'z,-x+1/2,-y+1/2'
 '-z,-x+1/2,y+1/2'
 '-z,x+1/2,-y+1/2'
 'y,z+1/2,x+1/2'
 '-y,z+1/2,-x+1/2'
 'y,-z+1/2,-x+1/2'
 '-y,-z+1/2,x+1/2'
 'y,x+1/2,-z+1/2'
 '-y,-x+1/2,-z+1/2'
 'y,-x+1/2,z+1/2'
 '-y,x+1/2,z+1/2'
 'x,z+1/2,-y+1/2'
 '-x,z+1/2,y+1/2'
 '-x,-z+1/2,-y+1/2'
 'x,-z+1/2,y+1/2'
 'z,y+1/2,-x+1/2'
 'z,-y+1/2,x+1/2'
 '-z,y+1/2,x+1/2'
 '-z,-y+1/2,-x+1/2'
 '-x,-y+1/2,-z+1/2'
 'x,y+1/2,-z+1/2'
 'x,-y+1/2,z+1/2'
 '-x,y+1/2,z+1/2'
 '-z,-x+1/2,-y+1/2'
 '-z,x+1/2,y+1/2'
 'z,x+1/2,-y+1/2'
 'z,-x+1/2,y+1/2'
 '-y,-z+1/2,-x+1/2'
 'y,-z+1/2,x+1/2'
 '-y,z+1/2,x+1/2'
 'y,z+1/2,-x+1/2'
 '-y,-x+1/2,z+1/2'
 'y,x+1/2,z+1/2'
 '-y,x+1/2,-z+1/2'
 'y,-x+1/2,-z+1/2'
 '-x,-z+1/2,y+1/2'
 'x,-z+1/2,-y+1/2'
 'x,z+1/2,y+1/2'
 '-x,z+1/2,-y+1/2'
 '-z,-y+1/2,x+1/2'
 '-z,y+1/2,-x+1/2'
 'z,-y+1/2,-x+1/2'
 'z,y+1/2,x+1/2'
 'x+1/2,y,z+1/2'
 '-x+1/2,-y,z+1/2'
 '-x+1/2,y,-z+1/2'
 'x+1/2,-y,-z+1/2'
 'z+1/2,x,y+1/2'
 'z+1/2,-x,-y+1/2'
 '-z+1/2,-x,y+1/2'
 '-z+1/2,x,-y+1/2'
 'y+1/2,z,x+1/2'
 '-y+1/2,z,-x+1/2'
 'y+1/2,-z,-x+1/2'
 '-y+1/2,-z,x+1/2'
 'y+1/2,x,-z+1/2'
 '-y+1/2,-x,-z+1/2'
 'y+1/2,-x,z+1/2'
 '-y+1/2,x,z+1/2'
 'x+1/2,z,-y+1/2'
 '-x+1/2,z,y+1/2'
 '-x+1/2,-z,-y+1/2'
 'x+1/2,-z,y+1/2'
 'z+1/2,y,-x+1/2'
 'z+1/2,-y,x+1/2'
 '-z+1/2,y,x+1/2'
 '-z+1/2,-y,-x+1/2'
 '-x+1/2,-y,-z+1/2'
 'x+1/2,y,-z+1/2'
 'x+1/2,-y,z+1/2'
 '-x+1/2,y,z+1/2'
 '-z+1/2,-x,-y+1/2'
 '-z+1/2,x,y+1/2'
 'z+1/2,x,-y+1/2'
 'z+1/2,-x,y+1/2'
 '-y+1/2,-z,-x+1/2'
 'y+1/2,-z,x+1/2'
 '-y+1/2,z,x+1/2'
 'y+1/2,z,-x+1/2'
 '-y+1/2,-x,z+1/2'
 'y+1/2,x,z+1/2'
 '-y+1/2,x,-z+1/2'
 'y+1/2,-x,-z+1/2'
 '-x+1/2,-z,y+1/2'
 'x+1/2,-z,-y+1/2'
 'x+1/2,z,y+1/2'
 '-x+1/2,z,-y+1/2'
 '-z+1/2,-y,x+1/2'
 '-z+1/2,y,-x+1/2'
 'z+1/2,-y,-x+1/2'
 'z+1/2,y,x+1/2'
 'x+1/2,y+1/2,z'
 '-x+1/2,-y+1/2,z'
 '-x+1/2,y+1/2,-z'
 'x+1/2,-y+1/2,-z'
 'z+1/2,x+1/2,y'
 'z+1/2,-x+1/2,-y'
 '-z+1/2,-x+1/2,y'
 '-z+1/2,x+1/2,-y'
 'y+1/2,z+1/2,x'
 '-y+1/2,z+1/2,-x'
 'y+1/2,-z+1/2,-x'
 '-y+1/2,-z+1/2,x'
 'y+1/2,x+1/2,-z'
 '-y+1/2,-x+1/2,-z'
 'y+1/2,-x+1/2,z'
 '-y+1/2,x+1/2,z'
 'x+1/2,z+1/2,-y'
 '-x+1/2,z+1/2,y'
 '-x+1/2,-z+1/2,-y'
 'x+1/2,-z+1/2,y'
 'z+1/2,y+1/2,-x'
 'z+1/2,-y+1/2,x'
 '-z+1/2,y+1/2,x'
 '-z+1/2,-y+1/2,-x'
 '-x+1/2,-y+1/2,-z'
 'x+1/2,y+1/2,-z'
 'x+1/2,-y+1/2,z'
 '-x+1/2,y+1/2,z'
 '-z+1/2,-x+1/2,-y'
 '-z+1/2,x+1/2,y'
 'z+1/2,x+1/2,-y'
 'z+1/2,-x+1/2,y'
 '-y+1/2,-z+1/2,-x'
 'y+1/2,-z+1/2,x'
 '-y+1/2,z+1/2,x'
 'y+1/2,z+1/2,-x'
 '-y+1/2,-x+1/2,z'
 'y+1/2,x+1/2,z'
 '-y+1/2,x+1/2,-z'
 'y+1/2,-x+1/2,-z'
 '-x+1/2,-z+1/2,y'
 'x+1/2,-z+1/2,-y'
 'x+1/2,z+1/2,y'
 '-x+1/2,z+1/2,-y'
 '-z+1/2,-y+1/2,x'
 '-z+1/2,y+1/2,-x'
 'z+1/2,-y+1/2,-x'
 'z+1/2,y+1/2,x'

loop_
_atom_site_label
_atom_site_type_symbol
_atom_site_fract_x
_atom_site_fract_y
_atom_site_fract_z
_atom_site_charge
Cu1      Cu     0          0.09537    0.09537    0 
Cu2      Cu     0          0.127      0.127      0 
O1       O      0.0232     0.08177    0.1139     0 
O2       O      0.0229     0.108      0.1409     0 
#O3       O      0          0.0687     0.0687     0 
#O4       O      0          0.156      0.156      0 
C1       C      0.0305     0.0901     0.1317     0 
C2       C      0.0603     0.0603     0.1332     0 
H2       H      0.0551     0.0551     0.1189     0 
C3       C      0.04956    0.07829    0.1431     0 
C4       C      0.05679    0.08556    0.1644     0 
H4       H      0.0496     0.098      0.1715     0 
C5       C      0.07456    0.07456    0.1751     0 
C6       C      0.082      0.082      0.1969     0 
C7       C      0.0871     0.0871     0.2149     0 
C8       C      0.0945     0.0945     0.2365     0 
C9       C      0.0838     0.1125     0.2471     0 
H9       H      0.0715     0.1199     0.2399     0 
C10      C      0.0911     0.1198     0.2682     0 
H10      H      0.0837     0.1321     0.2754     0 
C11      C      0.1091     0.1091     0.2789     0 
C12      C      0.1166     0.1166     0.3007     0 
C13      C      0.1228     0.1228     0.3188     0 
C15      C      0.1511     0.1223     0.3489     0 
H15      H      0.1562     0.108      0.3438     0 
C14      C      0.1329     0.1329     0.3383     0 


