data_PCN-61

_audit_creation_method RASPA-1.0
_audit_creation_date 2011-3-8
_audit_author_name 'David Dubbeldam'

_citation_author_name        'D. Zhao, D.Q. Yuan, D.F. Sun, and H.C. Zhou'
_citation_title              'Stabilization of Metal-Organic Frameworks with High Surface Areas by the Incorporation of Mesocavities with Microwindows'
_citation_journal_abbrev     'J. Am. Chem. Soc.'
_citation_journal_volume     131
_citation_journal_number     26
_citation_page_first         9186
_citation_page_last          9187
_citation_year               2009

_cell_length_a    42.7958
_cell_length_b    42.7958
_cell_length_c    42.7958
_cell_angle_alpha 90
_cell_angle_beta  90
_cell_angle_gamma 90
_cell_volume      78379.7

_symmetry_cell_setting          cubic
_symmetry_space_group_name_Hall '-F 4 2 3'
_symmetry_space_group_name_H-M  'F m -3 m'
_symmetry_Int_Tables_number     225

loop_
_symmetry_equiv_pos_as_xyz
 'x,y,z'
 '-x,-y,z'
 '-x,y,-z'
 'x,-y,-z'
 'z,x,y'
 'z,-x,-y'
 '-z,-x,y'
 '-z,x,-y'
 'y,z,x'
 '-y,z,-x'
 'y,-z,-x'
 '-y,-z,x'
 'y,x,-z'
 '-y,-x,-z'
 'y,-x,z'
 '-y,x,z'
 'x,z,-y'
 '-x,z,y'
 '-x,-z,-y'
 'x,-z,y'
 'z,y,-x'
 'z,-y,x'
 '-z,y,x'
 '-z,-y,-x'
 '-x,-y,-z'
 'x,y,-z'
 'x,-y,z'
 '-x,y,z'
 '-z,-x,-y'
 '-z,x,y'
 'z,x,-y'
 'z,-x,y'
 '-y,-z,-x'
 'y,-z,x'
 '-y,z,x'
 'y,z,-x'
 '-y,-x,z'
 'y,x,z'
 '-y,x,-z'
 'y,-x,-z'
 '-x,-z,y'
 'x,-z,-y'
 'x,z,y'
 '-x,z,-y'
 '-z,-y,x'
 '-z,y,-x'
 'z,-y,-x'
 'z,y,x'
 'x,y+1/2,z+1/2'
 '-x,-y+1/2,z+1/2'
 '-x,y+1/2,-z+1/2'
 'x,-y+1/2,-z+1/2'
 'z,x+1/2,y+1/2'
 'z,-x+1/2,-y+1/2'
 '-z,-x+1/2,y+1/2'
 '-z,x+1/2,-y+1/2'
 'y,z+1/2,x+1/2'
 '-y,z+1/2,-x+1/2'
 'y,-z+1/2,-x+1/2'
 '-y,-z+1/2,x+1/2'
 'y,x+1/2,-z+1/2'
 '-y,-x+1/2,-z+1/2'
 'y,-x+1/2,z+1/2'
 '-y,x+1/2,z+1/2'
 'x,z+1/2,-y+1/2'
 '-x,z+1/2,y+1/2'
 '-x,-z+1/2,-y+1/2'
 'x,-z+1/2,y+1/2'
 'z,y+1/2,-x+1/2'
 'z,-y+1/2,x+1/2'
 '-z,y+1/2,x+1/2'
 '-z,-y+1/2,-x+1/2'
 '-x,-y+1/2,-z+1/2'
 'x,y+1/2,-z+1/2'
 'x,-y+1/2,z+1/2'
 '-x,y+1/2,z+1/2'
 '-z,-x+1/2,-y+1/2'
 '-z,x+1/2,y+1/2'
 'z,x+1/2,-y+1/2'
 'z,-x+1/2,y+1/2'
 '-y,-z+1/2,-x+1/2'
 'y,-z+1/2,x+1/2'
 '-y,z+1/2,x+1/2'
 'y,z+1/2,-x+1/2'
 '-y,-x+1/2,z+1/2'
 'y,x+1/2,z+1/2'
 '-y,x+1/2,-z+1/2'
 'y,-x+1/2,-z+1/2'
 '-x,-z+1/2,y+1/2'
 'x,-z+1/2,-y+1/2'
 'x,z+1/2,y+1/2'
 '-x,z+1/2,-y+1/2'
 '-z,-y+1/2,x+1/2'
 '-z,y+1/2,-x+1/2'
 'z,-y+1/2,-x+1/2'
 'z,y+1/2,x+1/2'
 'x+1/2,y,z+1/2'
 '-x+1/2,-y,z+1/2'
 '-x+1/2,y,-z+1/2'
 'x+1/2,-y,-z+1/2'
 'z+1/2,x,y+1/2'
 'z+1/2,-x,-y+1/2'
 '-z+1/2,-x,y+1/2'
 '-z+1/2,x,-y+1/2'
 'y+1/2,z,x+1/2'
 '-y+1/2,z,-x+1/2'
 'y+1/2,-z,-x+1/2'
 '-y+1/2,-z,x+1/2'
 'y+1/2,x,-z+1/2'
 '-y+1/2,-x,-z+1/2'
 'y+1/2,-x,z+1/2'
 '-y+1/2,x,z+1/2'
 'x+1/2,z,-y+1/2'
 '-x+1/2,z,y+1/2'
 '-x+1/2,-z,-y+1/2'
 'x+1/2,-z,y+1/2'
 'z+1/2,y,-x+1/2'
 'z+1/2,-y,x+1/2'
 '-z+1/2,y,x+1/2'
 '-z+1/2,-y,-x+1/2'
 '-x+1/2,-y,-z+1/2'
 'x+1/2,y,-z+1/2'
 'x+1/2,-y,z+1/2'
 '-x+1/2,y,z+1/2'
 '-z+1/2,-x,-y+1/2'
 '-z+1/2,x,y+1/2'
 'z+1/2,x,-y+1/2'
 'z+1/2,-x,y+1/2'
 '-y+1/2,-z,-x+1/2'
 'y+1/2,-z,x+1/2'
 '-y+1/2,z,x+1/2'
 'y+1/2,z,-x+1/2'
 '-y+1/2,-x,z+1/2'
 'y+1/2,x,z+1/2'
 '-y+1/2,x,-z+1/2'
 'y+1/2,-x,-z+1/2'
 '-x+1/2,-z,y+1/2'
 'x+1/2,-z,-y+1/2'
 'x+1/2,z,y+1/2'
 '-x+1/2,z,-y+1/2'
 '-z+1/2,-y,x+1/2'
 '-z+1/2,y,-x+1/2'
 'z+1/2,-y,-x+1/2'
 'z+1/2,y,x+1/2'
 'x+1/2,y+1/2,z'
 '-x+1/2,-y+1/2,z'
 '-x+1/2,y+1/2,-z'
 'x+1/2,-y+1/2,-z'
 'z+1/2,x+1/2,y'
 'z+1/2,-x+1/2,-y'
 '-z+1/2,-x+1/2,y'
 '-z+1/2,x+1/2,-y'
 'y+1/2,z+1/2,x'
 '-y+1/2,z+1/2,-x'
 'y+1/2,-z+1/2,-x'
 '-y+1/2,-z+1/2,x'
 'y+1/2,x+1/2,-z'
 '-y+1/2,-x+1/2,-z'
 'y+1/2,-x+1/2,z'
 '-y+1/2,x+1/2,z'
 'x+1/2,z+1/2,-y'
 '-x+1/2,z+1/2,y'
 '-x+1/2,-z+1/2,-y'
 'x+1/2,-z+1/2,y'
 'z+1/2,y+1/2,-x'
 'z+1/2,-y+1/2,x'
 '-z+1/2,y+1/2,x'
 '-z+1/2,-y+1/2,-x'
 '-x+1/2,-y+1/2,-z'
 'x+1/2,y+1/2,-z'
 'x+1/2,-y+1/2,z'
 '-x+1/2,y+1/2,z'
 '-z+1/2,-x+1/2,-y'
 '-z+1/2,x+1/2,y'
 'z+1/2,x+1/2,-y'
 'z+1/2,-x+1/2,y'
 '-y+1/2,-z+1/2,-x'
 'y+1/2,-z+1/2,x'
 '-y+1/2,z+1/2,x'
 'y+1/2,z+1/2,-x'
 '-y+1/2,-x+1/2,z'
 'y+1/2,x+1/2,z'
 '-y+1/2,x+1/2,-z'
 'y+1/2,-x+1/2,-z'
 '-x+1/2,-z+1/2,y'
 'x+1/2,-z+1/2,-y'
 'x+1/2,z+1/2,y'
 '-x+1/2,z+1/2,-y'
 '-z+1/2,-y+1/2,x'
 '-z+1/2,y+1/2,-x'
 'z+1/2,-y+1/2,-x'
 'z+1/2,y+1/2,x'

loop_
_atom_site_label
_atom_site_type_symbol
_atom_site_fract_x
_atom_site_fract_y
_atom_site_fract_z
_atom_site_charge
Cu1      Cu     0          0.13135    0.13135    0 
Cu2      Cu     0          0.17511    0.17511    0 
O1       O      0.03239    0.1123     0.15711    0 
O2       O      0.03226    0.14816    0.1945     0 
#O3       O      0          0.21257    0.21257    0 
#O4       O      0          0.09612    0.09612    0 
C1       C      0.0442     0.1222     0.1837     0 
C2       C      0.0803     0.0803     0.1841     0 
H2       H      0.0716     0.0716     0.1656     0 
C3       C      0.07       0.1056     0.2002     0 
C4       C      0.0789     0.1179     0.2279     0 
H4       H      0.0692     0.1359     0.2366     0 
C5       C      0.1026     0.1026     0.2424     0 
C6       C      0.1135     0.1135     0.2728     0 
C7       C      0.1221     0.1221     0.2939     0 
C8       C      0.134      0.134      0.3232     0 
C9       C      0.1215     0.1613     0.3387     0 
H9       H      0.103      0.1699     0.3301     0 


