data_PCN-68-primitive

_audit_creation_method RASPA-1.0
_audit_creation_date 2011-3-8
_audit_author_name 'David Dubbeldam'

_citation_author_name        'D.Q. Yuan, D. Zhao, D.F. Sun, and H.C. Zhou'
_citation_title              'An Isoreticular Series of Metal-Organic Frameworks with Dendritic Hexacarboxylate Ligands and Exceptionally High Gas-Uptake Capacity'
_citation_journal_abbrev     'Angew. Chem. Int. Ed.'
_citation_journal_volume     49
_citation_journal_number     31
_citation_page_first         5357
_citation_page_last          5361
_citation_year               2010

_cell_length_a    41.8275
_cell_length_b    41.8275
_cell_length_c    41.8275
_cell_angle_alpha 60.0
_cell_angle_beta  60.0
_cell_angle_gamma 60.0

_symmetry_cell_setting          triclinic
_symmetry_space_group_name_Hall 'P 1'
_symmetry_space_group_name_H-M  'P 1'
_symmetry_Int_Tables_number     1

_symmetry_equiv_pos_as_xyz 'x,y,z'

loop_
_atom_site_label
_atom_site_type_symbol
_atom_site_fract_x
_atom_site_fract_y
_atom_site_fract_z
_atom_site_charge
C1       C      0.9279     0.8087     0.0111    0 
C1       C      0.1913     0.9889     0.7477    0
C1       C      0.0721     0.7477     0.9889    0
C1       C      0.0721     0.9889     0.1913    0
C1       C      0.1913     0.7477     0.0721    0
C1       C      0.7477     0.1913     0.9889    0
C1       C      0.9889     0.0721     0.7477    0
C1       C      0.1913     0.0721     0.9889    0
C1       C      0.0721     0.1913     0.7477    0
C1       C      0.9889     0.7477     0.1913    0
C1       C      0.7477     0.9889     0.0721    0
C1       C      0.2523     0.8087     0.9279    0
C1       C      0.9889     0.1913     0.0721    0
C1       C      0.0111     0.9279     0.8087    0
C1       C      0.9279     0.0111     0.2523    0
C1       C      0.8087     0.2523     0.0111    0
C1       C      0.2523     0.0111     0.8087    0
C1       C      0.0111     0.2523     0.9279    0
C1       C      0.7477     0.0721     0.1913    0
C1       C      0.8087     0.9279     0.2523    0
C1       C      0.2523     0.9279     0.0111    0
C1       C      0.0111     0.8087     0.2523    0
C1       C      0.9279     0.2523     0.8087    0
C1       C      0.8087     0.0111     0.9279    0
C1       C      0.0111     0.8087     0.9279    0
C1       C      0.2523     0.9279     0.8087    0
C1       C      0.8087     0.0111     0.2523    0
C1       C      0.9279     0.2523     0.0111    0
C1       C      0.9279     0.0111     0.8087    0
C1       C      0.8087     0.2523     0.9279    0
C1       C      0.2523     0.8087     0.0111    0
C1       C      0.0111     0.9279     0.2523    0
C1       C      0.8087     0.9279     0.0111    0
C1       C      0.9279     0.8087     0.2523    0
C1       C      0.0111     0.2523     0.8087    0
C1       C      0.2523     0.0111     0.9279    0
C1       C      0.7477     0.1913     0.0721    0
C1       C      0.9889     0.0721     0.1913    0
C1       C      0.0721     0.9889     0.7477    0
C1       C      0.1913     0.7477     0.9889    0
C1       C      0.7477     0.9889     0.1913    0
C1       C      0.9889     0.7477     0.0721    0
C1       C      0.0721     0.1913     0.9889    0
C1       C      0.1913     0.0721     0.7477    0
C1       C      0.7477     0.0721     0.9889    0
C1       C      0.9889     0.1913     0.7477    0
C1       C      0.0721     0.7477     0.1913    0
C1       C      0.1913     0.9889     0.0721    0
C2       C      0.8668     0.0126     0.8668    0
C2       C      0.7462     0.1332     0.1332    0
C2       C      0.1332     0.9874     0.7462    0
C2       C      0.1332     0.7462     0.9874    0
C2       C      0.1332     0.9874     0.1332    0
C2       C      0.1332     0.7462     0.1332    0
C2       C      0.7462     0.1332     0.9874    0
C2       C      0.9874     0.1332     0.7462    0
C2       C      0.1332     0.1332     0.9874    0
C2       C      0.1332     0.1332     0.7462    0
C2       C      0.9874     0.7462     0.1332    0
C2       C      0.7462     0.9874     0.1332    0
C2       C      0.2538     0.8668     0.8668    0
C2       C      0.0126     0.8668     0.8668    0
C2       C      0.8668     0.0126     0.2538    0
C2       C      0.8668     0.2538     0.0126    0
C2       C      0.2538     0.0126     0.8668    0
C2       C      0.0126     0.2538     0.8668    0
C2       C      0.8668     0.8668     0.0126    0
C2       C      0.8668     0.8668     0.2538    0
C2       C      0.2538     0.8668     0.0126    0
C2       C      0.0126     0.8668     0.2538    0
C2       C      0.8668     0.2538     0.8668    0
C2       C      0.9874     0.1332     0.1332    0
C3       C      0.9848     0.1718     0.1144    0
C3       C      0.7291     0.1144     0.1718    0
C3       C      0.1718     0.9847     0.7290    0
C3       C      0.1144     0.7290     0.9847    0
C3       C      0.1144     0.9848     0.1718    0
C3       C      0.1718     0.7291     0.1144    0
C3       C      0.7290     0.1718     0.9847    0
C3       C      0.9847     0.1144     0.7290    0
C3       C      0.1718     0.1144     0.9848    0
C3       C      0.1144     0.1718     0.7291    0
C3       C      0.9847     0.7290     0.1718    0
C3       C      0.7290     0.9847     0.1144    0
C3       C      0.2710     0.8282     0.8856    0
C3       C      0.0153     0.8856     0.8282    0
C3       C      0.8856     0.0152     0.2709    0
C3       C      0.8282     0.2709     0.0152    0
C3       C      0.2709     0.0152     0.8282    0
C3       C      0.0152     0.2709     0.8856    0
C3       C      0.8856     0.8282     0.0153    0
C3       C      0.8282     0.8856     0.2710    0
C3       C      0.2709     0.8856     0.0152    0
C3       C      0.0152     0.8282     0.2709    0
C3       C      0.8856     0.2710     0.8282    0
C3       C      0.8282     0.0153     0.8856    0
C3       C      0.0153     0.8282     0.8856    0
C3       C      0.2710     0.8856     0.8282    0
C3       C      0.8282     0.0152     0.2709    0
C3       C      0.8856     0.2709     0.0152    0
C3       C      0.8856     0.0153     0.8282    0
C3       C      0.8282     0.2710     0.8856    0
C3       C      0.2709     0.8282     0.0152    0
C3       C      0.0152     0.8856     0.2709    0
C3       C      0.8282     0.8856     0.0153    0
C3       C      0.8856     0.8282     0.2710    0
C3       C      0.0152     0.2709     0.8282    0
C3       C      0.2709     0.0152     0.8856    0
C3       C      0.7291     0.1718     0.1144    0
C3       C      0.9848     0.1144     0.1718    0
C3       C      0.1144     0.9847     0.7290    0
C3       C      0.1718     0.7290     0.9847    0
C3       C      0.7290     0.9847     0.1718    0
C3       C      0.9847     0.7290     0.1144    0
C3       C      0.1144     0.1718     0.9848    0
C3       C      0.1718     0.1144     0.7291    0
C3       C      0.7290     0.1144     0.9847    0
C3       C      0.9847     0.1718     0.7290    0
C3       C      0.1144     0.7291     0.1718    0
C3       C      0.1718     0.9848     0.1144    0
C4       C      0.8644     0.8068     0.0220    0
C4       C      0.6933     0.1356     0.1932    0
C4       C      0.1932     0.9780     0.6933    0
C4       C      0.1356     0.6933     0.9779    0
C4       C      0.1356     0.9780     0.1932    0
C4       C      0.1932     0.6933     0.1356    0
C4       C      0.6933     0.1932     0.9780    0
C4       C      0.9779     0.1356     0.6933    0
C4       C      0.1932     0.1356     0.9780    0
C4       C      0.1356     0.1932     0.6933    0
C4       C      0.9780     0.6933     0.1932    0
C4       C      0.6933     0.9779     0.1356    0
C4       C      0.3067     0.8068     0.8644    0
C4       C      0.0220     0.8644     0.8068    0
C4       C      0.8644     0.0220     0.3067    0
C4       C      0.8068     0.3067     0.0221    0
C4       C      0.3067     0.0221     0.8068    0
C4       C      0.0220     0.3067     0.8644    0
C4       C      0.9780     0.1932     0.1356    0
C4       C      0.8068     0.8644     0.3067    0
C4       C      0.3067     0.8644     0.0220    0
C4       C      0.0221     0.8068     0.3067    0
C4       C      0.8644     0.3067     0.8068    0
C4       C      0.8068     0.0220     0.8644    0
C4       C      0.0220     0.8068     0.8644    0
C4       C      0.3067     0.8644     0.8068    0
C4       C      0.8068     0.0221     0.3067    0
C4       C      0.8644     0.3067     0.0220    0
C4       C      0.8644     0.0220     0.8068    0
C4       C      0.8068     0.3067     0.8644    0
C4       C      0.3067     0.8068     0.0221    0
C4       C      0.0220     0.8644     0.3067    0
C4       C      0.8068     0.8644     0.0220    0
C4       C      0.8644     0.8068     0.3067    0
C4       C      0.0221     0.3067     0.8068    0
C4       C      0.3067     0.0220     0.8644    0
C4       C      0.6933     0.1932     0.1356    0
C4       C      0.9780     0.1356     0.1932    0
C4       C      0.1356     0.9779     0.6933    0
C4       C      0.1932     0.6933     0.9780    0
C4       C      0.6933     0.9780     0.1932    0
C4       C      0.9779     0.6933     0.1356    0
C4       C      0.1356     0.1932     0.9780    0
C4       C      0.1932     0.1356     0.6933    0
C4       C      0.6933     0.1356     0.9779    0
C4       C      0.9780     0.1932     0.6933    0
C4       C      0.1356     0.6933     0.1932    0
C4       C      0.1932     0.9780     0.1356    0
C5       C      0.8249     0.0260     0.8249    0
C5       C      0.6758     0.1751     0.1751    0
C5       C      0.1751     0.9740     0.6758    0
C5       C      0.1751     0.6758     0.9740    0
C5       C      0.1751     0.9740     0.1751    0
C5       C      0.1751     0.6758     0.1751    0
C5       C      0.6758     0.1751     0.9740    0
C5       C      0.9740     0.1751     0.6758    0
C5       C      0.1751     0.1751     0.9740    0
C5       C      0.1751     0.1751     0.6758    0
C5       C      0.9740     0.6758     0.1751    0
C5       C      0.6758     0.9740     0.1751    0
C5       C      0.3242     0.8249     0.8249    0
C5       C      0.0260     0.8249     0.8249    0
C5       C      0.8249     0.0260     0.3242    0
C5       C      0.8249     0.3242     0.0260    0
C5       C      0.3242     0.0260     0.8249    0
C5       C      0.0260     0.3242     0.8249    0
C5       C      0.8249     0.8249     0.0260    0
C5       C      0.8249     0.8249     0.3242    0
C5       C      0.3242     0.8249     0.0260    0
C5       C      0.0260     0.8249     0.3242    0
C5       C      0.8249     0.3242     0.8249    0
C5       C      0.9740     0.1751     0.1751    0
C6       C      0.9671     0.1969     0.1969    0
C6       C      0.6391     0.1969     0.1969    0
C6       C      0.1969     0.9671     0.6391    0
C6       C      0.1969     0.6391     0.9671    0
C6       C      0.1969     0.9671     0.1969    0
C6       C      0.1969     0.6391     0.1969    0
C6       C      0.6391     0.1969     0.9671    0
C6       C      0.9671     0.1969     0.6391    0
C6       C      0.1969     0.1969     0.9671    0
C6       C      0.1969     0.1969     0.6391    0
C6       C      0.9671     0.6391     0.1969    0
C6       C      0.6391     0.9671     0.1969    0
C6       C      0.3609     0.8031     0.8031    0
C6       C      0.0329     0.8031     0.8031    0
C6       C      0.8031     0.0329     0.3609    0
C6       C      0.8031     0.3609     0.0329    0
C6       C      0.3609     0.0329     0.8031    0
C6       C      0.0329     0.3609     0.8031    0
C6       C      0.8031     0.8031     0.0329    0
C6       C      0.8031     0.8031     0.3609    0
C6       C      0.3609     0.8031     0.0329    0
C6       C      0.0329     0.8031     0.3609    0
C6       C      0.8031     0.3609     0.8031    0
C6       C      0.8031     0.0329     0.8031    0
C7       C      0.6109     0.2149     0.2149    0
C7       C      0.2149     0.6109     0.9593    0
C7       C      0.2149     0.9593     0.2149    0
C7       C      0.2149     0.6109     0.2149    0
C7       C      0.6109     0.2149     0.9593    0
C7       C      0.9593     0.2149     0.6109    0
C7       C      0.2149     0.2149     0.9593    0
C7       C      0.2149     0.2149     0.6109    0
C7       C      0.9593     0.6109     0.2149    0
C7       C      0.6109     0.9593     0.2149    0
C7       C      0.3891     0.7851     0.7851    0
C7       C      0.0407     0.7851     0.7851    0
C7       C      0.7851     0.0407     0.3891    0
C7       C      0.7851     0.3891     0.0407    0
C7       C      0.9593     0.2149     0.2149    0
C7       C      0.3891     0.0407     0.7851    0
C7       C      0.0407     0.3891     0.7851    0
C7       C      0.7851     0.7851     0.0407    0
C7       C      0.7851     0.7851     0.3891    0
C7       C      0.3891     0.7851     0.0407    0
C7       C      0.0407     0.7851     0.3891    0
C7       C      0.7851     0.3891     0.7851    0
C7       C      0.7851     0.0407     0.7851    0
C7       C      0.2149     0.9593     0.6109    0
C8       C      0.7635     0.0475     0.7635    0
C8       C      0.9525     0.2365     0.2365    0
C8       C      0.5745     0.2365     0.2365    0
C8       C      0.2365     0.9525     0.5745    0
C8       C      0.2365     0.5745     0.9525    0
C8       C      0.2365     0.9525     0.2365    0
C8       C      0.2365     0.5745     0.2365    0
C8       C      0.5745     0.2365     0.9525    0
C8       C      0.9525     0.2365     0.5745    0
C8       C      0.2365     0.2365     0.9525    0
C8       C      0.2365     0.2365     0.5745    0
C8       C      0.9525     0.5745     0.2365    0
C8       C      0.5745     0.9525     0.2365    0
C8       C      0.4255     0.7635     0.7635    0
C8       C      0.0475     0.7635     0.7635    0
C8       C      0.7635     0.0475     0.4255    0
C8       C      0.7635     0.4255     0.0475    0
C8       C      0.4255     0.0475     0.7635    0
C8       C      0.0475     0.4255     0.7635    0
C8       C      0.7635     0.7635     0.0475    0
C8       C      0.7635     0.7635     0.4255    0
C8       C      0.4255     0.7635     0.0475    0
C8       C      0.0475     0.7635     0.4255    0
C8       C      0.7635     0.4255     0.7635    0
C9       C      0.7242     0.4434     0.0508    0
C9       C      0.9492     0.2758     0.2184    0
C9       C      0.5566     0.2184     0.2758    0
C9       C      0.2758     0.9492     0.5566    0
C9       C      0.2184     0.5566     0.9492    0
C9       C      0.2184     0.9492     0.2758    0
C9       C      0.2758     0.5566     0.2184    0
C9       C      0.5566     0.2758     0.9492    0
C9       C      0.9492     0.2184     0.5566    0
C9       C      0.2758     0.2184     0.9492    0
C9       C      0.2184     0.2758     0.5566    0
C9       C      0.9492     0.5566     0.2758    0
C9       C      0.5566     0.9492     0.2184    0
C9       C      0.4434     0.7242     0.7816    0
C9       C      0.0508     0.7816     0.7242    0
C9       C      0.7816     0.0508     0.4434    0
C9       C      0.4434     0.0508     0.7242    0
C9       C      0.0508     0.4434     0.7816    0
C9       C      0.7816     0.7242     0.0508    0
C9       C      0.7242     0.7816     0.4434    0
C9       C      0.4434     0.7816     0.0508    0
C9       C      0.0508     0.7242     0.4434    0
C9       C      0.7816     0.4434     0.7242    0
C9       C      0.7242     0.0508     0.7816    0
C9       C      0.0508     0.7242     0.7816    0
C9       C      0.4434     0.7816     0.7242    0
C9       C      0.7242     0.0508     0.4434    0
C9       C      0.7816     0.4434     0.0508    0
C9       C      0.7816     0.0508     0.7242    0
C9       C      0.7242     0.4434     0.7816    0
C9       C      0.4434     0.7242     0.0508    0
C9       C      0.0508     0.7816     0.4434    0
C9       C      0.7242     0.7816     0.0508    0
C9       C      0.7816     0.7242     0.4434    0
C9       C      0.0508     0.4434     0.7242    0
C9       C      0.4434     0.0508     0.7816    0
C9       C      0.5566     0.2758     0.2184    0
C9       C      0.9492     0.2184     0.2758    0
C9       C      0.2184     0.9492     0.5566    0
C9       C      0.2758     0.5566     0.9492    0
C9       C      0.5566     0.9492     0.2758    0
C9       C      0.9492     0.5566     0.2184    0
C9       C      0.2184     0.2758     0.9492    0
C9       C      0.2758     0.2184     0.5566    0
C9       C      0.5566     0.2184     0.9492    0
C9       C      0.9492     0.2758     0.5566    0
C9       C      0.2184     0.5566     0.2758    0
C9       C      0.2758     0.9492     0.2184    0
C10      C      0.7605     0.7031     0.0573    0
C10      C      0.5209     0.2395     0.2969    0
C10      C      0.2969     0.9427     0.5209    0
C10      C      0.2395     0.5209     0.9427    0
C10      C      0.2395     0.9427     0.2969    0
C10      C      0.2969     0.5209     0.2395    0
C10      C      0.5209     0.2969     0.9427    0
C10      C      0.9427     0.2395     0.5209    0
C10      C      0.2969     0.2395     0.9427    0
C10      C      0.2395     0.2969     0.5209    0
C10      C      0.9427     0.5209     0.2969    0
C10      C      0.5209     0.9427     0.2395    0
C10      C      0.4791     0.7031     0.7605    0
C10      C      0.0573     0.7605     0.7031    0
C10      C      0.7605     0.0573     0.4791    0
C10      C      0.7031     0.4791     0.0573    0
C10      C      0.4791     0.0573     0.7031    0
C10      C      0.0573     0.4791     0.7605    0
C10      C      0.9427     0.2969     0.2395    0
C10      C      0.7031     0.7605     0.4791    0
C10      C      0.4791     0.7605     0.0573    0
C10      C      0.0573     0.7031     0.4791    0
C10      C      0.7605     0.4791     0.7031    0
C10      C      0.7031     0.0573     0.7605    0
C10      C      0.0573     0.7031     0.7605    0
C10      C      0.4791     0.7605     0.7031    0
C10      C      0.7031     0.0573     0.4791    0
C10      C      0.7605     0.4791     0.0573    0
C10      C      0.7605     0.0573     0.7031    0
C10      C      0.7031     0.4791     0.7605    0
C10      C      0.4791     0.7031     0.0573    0
C10      C      0.0573     0.7605     0.4791    0
C10      C      0.7031     0.7605     0.0573    0
C10      C      0.7605     0.7031     0.4791    0
C10      C      0.0573     0.4791     0.7031    0
C10      C      0.4791     0.0573     0.7605    0
C10      C      0.5209     0.2969     0.2395    0
C10      C      0.9427     0.2395     0.2969    0
C10      C      0.2395     0.9427     0.5209    0
C10      C      0.2969     0.5209     0.9427    0
C10      C      0.5209     0.9427     0.2969    0
C10      C      0.9427     0.5209     0.2395    0
C10      C      0.2395     0.2969     0.9427    0
C10      C      0.2969     0.2395     0.5209    0
C10      C      0.5209     0.2395     0.9427    0
C10      C      0.9427     0.2969     0.5209    0
C10      C      0.2395     0.5209     0.2969    0
C10      C      0.2969     0.9427     0.2395    0
C11      C      0.7211     0.0607     0.7211    0
C11      C      0.5029     0.2789     0.2789    0
C11      C      0.2789     0.9393     0.5029    0
C11      C      0.2789     0.5029     0.9393    0
C11      C      0.2789     0.9393     0.2789    0
C11      C      0.2789     0.5029     0.2789    0
C11      C      0.5029     0.2789     0.9393    0
C11      C      0.9393     0.2789     0.5029    0
C11      C      0.2789     0.2789     0.9393    0
C11      C      0.2789     0.2789     0.5029    0
C11      C      0.9393     0.5029     0.2789    0
C11      C      0.5029     0.9393     0.2789    0
C11      C      0.4971     0.7211     0.7211    0
C11      C      0.0607     0.7211     0.7211    0
C11      C      0.7211     0.0607     0.4971    0
C11      C      0.7211     0.4971     0.0607    0
C11      C      0.4971     0.0607     0.7211    0
C11      C      0.0607     0.4971     0.7211    0
C11      C      0.7211     0.7211     0.0607    0
C11      C      0.7211     0.7211     0.4971    0
C11      C      0.4971     0.7211     0.0607    0
C11      C      0.0607     0.7211     0.4971    0
C11      C      0.7211     0.4971     0.7211    0
C11      C      0.9393     0.2789     0.2789    0
C12      C      0.5339     0.6993     0.6993    0
C12      C      0.9325     0.3007     0.3007    0
C12      C      0.4661     0.3007     0.3007    0
C12      C      0.3007     0.9325     0.4661    0
C12      C      0.3007     0.4661     0.9325    0
C12      C      0.3007     0.9325     0.3007    0
C12      C      0.3007     0.4661     0.3007    0
C12      C      0.4661     0.3007     0.9325    0
C12      C      0.9325     0.3007     0.4661    0
C12      C      0.3007     0.3007     0.9325    0
C12      C      0.3007     0.3007     0.4661    0
C12      C      0.9325     0.4661     0.3007    0
C12      C      0.4661     0.9325     0.3007    0
C12      C      0.0675     0.6993     0.6993    0
C12      C      0.6993     0.0675     0.5339    0
C12      C      0.6993     0.5339     0.0675    0
C12      C      0.5339     0.0675     0.6993    0
C12      C      0.0675     0.5339     0.6993    0
C12      C      0.6993     0.6993     0.0675    0
C12      C      0.6993     0.6993     0.5339    0
C12      C      0.5339     0.6993     0.0675    0
C12      C      0.0675     0.6993     0.5339    0
C12      C      0.6993     0.5339     0.6993    0
C12      C      0.6993     0.0675     0.6993    0
C13      C      0.3188     0.9268     0.4356    0
C13      C      0.3188     0.4356     0.9268    0
C13      C      0.3188     0.9268     0.3188    0
C13      C      0.3188     0.4356     0.3188    0
C13      C      0.4356     0.3188     0.9268    0
C13      C      0.9268     0.3188     0.4356    0
C13      C      0.3188     0.3188     0.9268    0
C13      C      0.3188     0.3188     0.4356    0
C13      C      0.4356     0.3188     0.3188    0
C13      C      0.9268     0.4356     0.3188    0
C13      C      0.4356     0.9268     0.3188    0
C13      C      0.5644     0.6812     0.6812    0
C13      C      0.0732     0.6812     0.6812    0
C13      C      0.6812     0.0732     0.5644    0
C13      C      0.6812     0.5644     0.0732    0
C13      C      0.5644     0.0732     0.6812    0
C13      C      0.0732     0.5644     0.6812    0
C13      C      0.6812     0.6812     0.0732    0
C13      C      0.6812     0.6812     0.5644    0
C13      C      0.5644     0.6812     0.0732    0
C13      C      0.0732     0.6812     0.5644    0
C13      C      0.6812     0.5644     0.6812    0
C13      C      0.6812     0.0732     0.6812    0
C13      C      0.9268     0.3188     0.3188    0
C14      C      0.3383     0.3383     0.9275    0
C14      C      0.9275     0.3383     0.3383    0
C14      C      0.3959     0.3383     0.3383    0
C14      C      0.3383     0.9275     0.3959    0
C14      C      0.3383     0.3959     0.9275    0
C14      C      0.3383     0.9275     0.3383    0
C14      C      0.3383     0.3959     0.3383    0
C14      C      0.3959     0.3383     0.9275    0
C14      C      0.9275     0.3383     0.3959    0
C14      C      0.3383     0.3383     0.3959    0
C14      C      0.9275     0.3959     0.3383    0
C14      C      0.3959     0.9275     0.3383    0
C14      C      0.6041     0.6617     0.6617    0
C14      C      0.0725     0.6617     0.6617    0
C14      C      0.6617     0.0725     0.6041    0
C14      C      0.6617     0.6041     0.0725    0
C14      C      0.6041     0.0725     0.6617    0
C14      C      0.0725     0.6041     0.6617    0
C14      C      0.6617     0.6617     0.0725    0
C14      C      0.6617     0.6617     0.6041    0
C14      C      0.6041     0.6617     0.0725    0
C14      C      0.0725     0.6617     0.6041    0
C14      C      0.6617     0.6041     0.6617    0
C14      C      0.6617     0.0725     0.6617    0
C15      C      0.9245     0.3201     0.3777    0
C15      C      0.3777     0.3777     0.3201    0
C15      C      0.3201     0.9245     0.3777    0
C15      C      0.3777     0.3777     0.9245    0
C15      C      0.3777     0.9245     0.3201    0
C15      C      0.3201     0.3777     0.3777    0
C15      C      0.3777     0.3201     0.9245    0
C15      C      0.9245     0.3777     0.3777    0
C15      C      0.3201     0.3777     0.9245    0
C15      C      0.3777     0.3201     0.3777    0
C15      C      0.9245     0.3777     0.3201    0
C15      C      0.3777     0.9245     0.3777    0
C15      C      0.6223     0.6799     0.6223    0
C15      C      0.0755     0.6223     0.6799    0
C15      C      0.6223     0.0755     0.6223    0
C15      C      0.6799     0.6223     0.0755    0
C15      C      0.6223     0.0755     0.6799    0
C15      C      0.0755     0.6223     0.6223    0
C15      C      0.6223     0.6799     0.0755    0
C15      C      0.6799     0.6223     0.6223    0
C15      C      0.6223     0.6223     0.0755    0
C15      C      0.0755     0.6799     0.6223    0
C15      C      0.6223     0.6223     0.6799    0
C15      C      0.6799     0.0755     0.6223    0
Cu1      Cu     0.8093     0.0000     0.0000    0
Cu1      Cu     0.8093     0.0000     0.1907    0
Cu1      Cu     0.1907     0.0000     0.8093    0
Cu1      Cu     0.0000     0.8093     0.0000    0
Cu1      Cu     0.0000     0.0000     0.1907    0
Cu1      Cu     0.1907     0.8093     0.0000    0
Cu1      Cu     0.8093     0.1907     0.0000    0
Cu1      Cu     0.0000     0.0000     0.8093    0
Cu1      Cu     0.1907     0.0000     0.0000    0
Cu1      Cu     0.0000     0.1907     0.8093    0
Cu1      Cu     0.0000     0.8093     0.1907    0
Cu1      Cu     0.0000     0.1907     0.0000    0
Cu2      Cu     0.0000     0.2540     0.0000    0
Cu2      Cu     0.7460     0.0000     0.2540    0
Cu2      Cu     0.2540     0.0000     0.7460    0
Cu2      Cu     0.0000     0.7460     0.0000    0
Cu2      Cu     0.0000     0.0000     0.2540    0
Cu2      Cu     0.2540     0.7460     0.0000    0
Cu2      Cu     0.7460     0.2540     0.0000    0
Cu2      Cu     0.0000     0.0000     0.7460    0
Cu2      Cu     0.2540     0.0000     0.0000    0
Cu2      Cu     0.0000     0.2540     0.7460    0
Cu2      Cu     0.0000     0.7460     0.2540    0
Cu2      Cu     0.7460     0.0000     0.0000    0
H2       H      0.9913     0.1189     0.1189    0
H2       H      0.1189     0.7709     0.9913    0
H2       H      0.1189     0.9913     0.1189    0
H2       H      0.1189     0.7709     0.1189    0
H2       H      0.7709     0.1189     0.9913    0
H2       H      0.9913     0.1189     0.7709    0
H2       H      0.1189     0.1189     0.9913    0
H2       H      0.1189     0.1189     0.7709    0
H2       H      0.9913     0.7709     0.1189    0
H2       H      0.7709     0.9913     0.1189    0
H2       H      0.2291     0.8811     0.8811    0
H2       H      0.0087     0.8811     0.8811    0
H2       H      0.8811     0.0087     0.2291    0
H2       H      0.8811     0.2291     0.0087    0
H2       H      0.2291     0.0087     0.8811    0
H2       H      0.0087     0.2291     0.8811    0
H2       H      0.8811     0.8811     0.0087    0
H2       H      0.8811     0.8811     0.2291    0
H2       H      0.2291     0.8811     0.0087    0
H2       H      0.0087     0.8811     0.2291    0
H2       H      0.8811     0.2291     0.8811    0
H2       H      0.8811     0.0087     0.8811    0
H2       H      0.7709     0.1189     0.1189    0
H2       H      0.1189     0.9913     0.7709    0
H4       H      0.7801     0.0239     0.8769    0
H4       H      0.0239     0.7801     0.8769    0
H4       H      0.3191     0.8769     0.7801    0
H4       H      0.7801     0.0239     0.3191    0
H4       H      0.8769     0.3191     0.0239    0
H4       H      0.8769     0.0239     0.7801    0
H4       H      0.7801     0.3191     0.8769    0
H4       H      0.3191     0.7801     0.0239    0
H4       H      0.0239     0.8769     0.3191    0
H4       H      0.7801     0.8769     0.0239    0
H4       H      0.8769     0.7801     0.3191    0
H4       H      0.0239     0.3191     0.7801    0
H4       H      0.3191     0.0239     0.8769    0
H4       H      0.6809     0.2199     0.1231    0
H4       H      0.9761     0.1231     0.2199    0
H4       H      0.1231     0.9761     0.6809    0
H4       H      0.2199     0.6809     0.9761    0
H4       H      0.6809     0.9761     0.2199    0
H4       H      0.9761     0.6809     0.1231    0
H4       H      0.1231     0.2199     0.9761    0
H4       H      0.2199     0.1231     0.6809    0
H4       H      0.6809     0.1231     0.9761    0
H4       H      0.9761     0.2199     0.6809    0
H4       H      0.1231     0.6809     0.2199    0
H4       H      0.2199     0.9761     0.1231    0
H4       H      0.9761     0.2199     0.1231    0
H4       H      0.6809     0.1231     0.2199    0
H4       H      0.2199     0.9761     0.6809    0
H4       H      0.1231     0.6809     0.9761    0
H4       H      0.1231     0.9761     0.2199    0
H4       H      0.2199     0.6809     0.1231    0
H4       H      0.6809     0.2199     0.9761    0
H4       H      0.9761     0.1231     0.6809    0
H4       H      0.2199     0.1231     0.9761    0
H4       H      0.1231     0.2199     0.6809    0
H4       H      0.9761     0.6809     0.2199    0
H4       H      0.6809     0.9761     0.1231    0
H4       H      0.3191     0.7801     0.8769    0
H4       H      0.0239     0.8769     0.7801    0
H4       H      0.8769     0.0239     0.3191    0
H4       H      0.7801     0.3191     0.0239    0
H4       H      0.3191     0.0239     0.7801    0
H4       H      0.0239     0.3191     0.8769    0
H4       H      0.8769     0.7801     0.0239    0
H4       H      0.7801     0.8769     0.3191    0
H4       H      0.3191     0.8769     0.0239    0
H4       H      0.0239     0.7801     0.3191    0
H4       H      0.8769     0.3191     0.7801    0
H9       H      0.0485     0.7117     0.8085    0
H9       H      0.9515     0.2883     0.1915    0
H9       H      0.5687     0.1915     0.2883    0
H9       H      0.2883     0.9515     0.5687    0
H9       H      0.1915     0.5687     0.9515    0
H9       H      0.1915     0.9515     0.2883    0
H9       H      0.2883     0.5687     0.1915    0
H9       H      0.5687     0.2883     0.9515    0
H9       H      0.9515     0.1915     0.5687    0
H9       H      0.2883     0.1915     0.9515    0
H9       H      0.1915     0.2883     0.5687    0
H9       H      0.9515     0.5687     0.2883    0
H9       H      0.5687     0.9515     0.1915    0
H9       H      0.4313     0.7117     0.8085    0
H9       H      0.0485     0.8085     0.7117    0
H9       H      0.8085     0.0485     0.4313    0
H9       H      0.7117     0.4313     0.0485    0
H9       H      0.4313     0.0485     0.7117    0
H9       H      0.0485     0.4313     0.8085    0
H9       H      0.8085     0.7117     0.0485    0
H9       H      0.7117     0.8085     0.4313    0
H9       H      0.4313     0.8085     0.0485    0
H9       H      0.0485     0.7117     0.4313    0
H9       H      0.8085     0.4313     0.7117    0
H9       H      0.7117     0.0485     0.8085    0
H9       H      0.4313     0.8085     0.7117    0
H9       H      0.7117     0.0485     0.4313    0
H9       H      0.8085     0.4313     0.0485    0
H9       H      0.8085     0.0485     0.7117    0
H9       H      0.7117     0.4313     0.8085    0
H9       H      0.4313     0.7117     0.0485    0
H9       H      0.0485     0.8085     0.4313    0
H9       H      0.7117     0.8085     0.0485    0
H9       H      0.8085     0.7117     0.4313    0
H9       H      0.0485     0.4313     0.7117    0
H9       H      0.4313     0.0485     0.8085    0
H9       H      0.5687     0.2883     0.1915    0
H9       H      0.9515     0.1915     0.2883    0
H9       H      0.1915     0.9515     0.5687    0
H9       H      0.2883     0.5687     0.9515    0
H9       H      0.5687     0.9515     0.2883    0
H9       H      0.9515     0.5687     0.1915    0
H9       H      0.1915     0.2883     0.9515    0
H9       H      0.2883     0.1915     0.5687    0
H9       H      0.5687     0.1915     0.9515    0
H9       H      0.9515     0.2883     0.5687    0
H9       H      0.1915     0.5687     0.2883    0
H9       H      0.2883     0.9515     0.1915    0
H10      H      0.6762     0.7730     0.4912    0
H10      H      0.3238     0.9404     0.5088    0
H10      H      0.2270     0.5088     0.9404    0
H10      H      0.2270     0.9404     0.3238    0
H10      H      0.3238     0.5088     0.2270    0
H10      H      0.5088     0.3238     0.9404    0
H10      H      0.9404     0.2270     0.5088    0
H10      H      0.3238     0.2270     0.9404    0
H10      H      0.2270     0.3238     0.5088    0
H10      H      0.9404     0.5088     0.3238    0
H10      H      0.5088     0.9404     0.2270    0
H10      H      0.4912     0.6762     0.7730    0
H10      H      0.0596     0.7730     0.6762    0
H10      H      0.7730     0.0596     0.4912    0
H10      H      0.6762     0.4912     0.0596    0
H10      H      0.4912     0.0596     0.6762    0
H10      H      0.0596     0.4912     0.7730    0
H10      H      0.7730     0.6762     0.0596    0
H10      H      0.5088     0.2270     0.3238    0
H10      H      0.4912     0.7730     0.0596    0
H10      H      0.0596     0.6762     0.4912    0
H10      H      0.7730     0.4912     0.6762    0
H10      H      0.6762     0.0596     0.7730    0
H10      H      0.0596     0.6762     0.7730    0
H10      H      0.4912     0.7730     0.6762    0
H10      H      0.6762     0.0596     0.4912    0
H10      H      0.7730     0.4912     0.0596    0
H10      H      0.7730     0.0596     0.6762    0
H10      H      0.6762     0.4912     0.7730    0
H10      H      0.4912     0.6762     0.0596    0
H10      H      0.0596     0.7730     0.4912    0
H10      H      0.6762     0.7730     0.0596    0
H10      H      0.7730     0.6762     0.4912    0
H10      H      0.9404     0.3238     0.2270    0
H10      H      0.0596     0.4912     0.6762    0
H10      H      0.4912     0.0596     0.7730    0
H10      H      0.5088     0.3238     0.2270    0
H10      H      0.9404     0.2270     0.3238    0
H10      H      0.2270     0.9404     0.5088    0
H10      H      0.3238     0.5088     0.9404    0
H10      H      0.5088     0.9404     0.3238    0
H10      H      0.9404     0.5088     0.2270    0
H10      H      0.2270     0.3238     0.9404    0
H10      H      0.3238     0.2270     0.5088    0
H10      H      0.5088     0.2270     0.9404    0
H10      H      0.9404     0.3238     0.5088    0
H10      H      0.2270     0.5088     0.3238    0
H10      H      0.3238     0.9404     0.2270    0
H15      H      0.7044     0.0796     0.6080    0
H15      H      0.3920     0.3920     0.2956    0
H15      H      0.2956     0.9204     0.3920    0
H15      H      0.3920     0.3920     0.9204    0
H15      H      0.3920     0.9204     0.2956    0
H15      H      0.2956     0.3920     0.3920    0
H15      H      0.3920     0.2956     0.9204    0
H15      H      0.9204     0.3920     0.3920    0
H15      H      0.2956     0.3920     0.9204    0
H15      H      0.3920     0.2956     0.3920    0
H15      H      0.9204     0.3920     0.2956    0
H15      H      0.3920     0.9204     0.3920    0
H15      H      0.6080     0.7044     0.6080    0
H15      H      0.0796     0.6080     0.7044    0
H15      H      0.6080     0.0796     0.6080    0
H15      H      0.7044     0.6080     0.0796    0
H15      H      0.6080     0.0796     0.7044    0
H15      H      0.0796     0.6080     0.6080    0
H15      H      0.6080     0.7044     0.0796    0
H15      H      0.7044     0.6080     0.6080    0
H15      H      0.6080     0.6080     0.0796    0
H15      H      0.0796     0.7044     0.6080    0
H15      H      0.6080     0.6080     0.7044    0
H15      H      0.9204     0.2956     0.3920    0
O1       O      0.9447     0.8275     0.2189    0
O1       O      0.9911     0.1725     0.0553    0
O1       O      0.7811     0.0553     0.1725    0
O1       O      0.1725     0.9911     0.7811    0
O1       O      0.0553     0.7811     0.9911    0
O1       O      0.0553     0.9911     0.1725    0
O1       O      0.1725     0.7811     0.0553    0
O1       O      0.7811     0.1725     0.9911    0
O1       O      0.9911     0.0553     0.7811    0
O1       O      0.1725     0.0553     0.9911    0
O1       O      0.0553     0.1725     0.7811    0
O1       O      0.9911     0.7811     0.1725    0
O1       O      0.7811     0.9911     0.0553    0
O1       O      0.2189     0.8275     0.9447    0
O1       O      0.0089     0.9447     0.8275    0
O1       O      0.9447     0.0089     0.2189    0
O1       O      0.8275     0.2189     0.0089    0
O1       O      0.2189     0.0089     0.8275    0
O1       O      0.0089     0.2189     0.9447    0
O1       O      0.9447     0.8275     0.0089    0
O1       O      0.8275     0.9447     0.2189    0
O1       O      0.2189     0.9447     0.0089    0
O1       O      0.0089     0.8275     0.2189    0
O1       O      0.9447     0.2189     0.8275    0
O1       O      0.8275     0.0089     0.9447    0
O1       O      0.0089     0.8275     0.9447    0
O1       O      0.2189     0.9447     0.8275    0
O1       O      0.8275     0.0089     0.2189    0
O1       O      0.9447     0.2189     0.0089    0
O1       O      0.9447     0.0089     0.8275    0
O1       O      0.8275     0.2189     0.9447    0
O1       O      0.2189     0.8275     0.0089    0
O1       O      0.0089     0.9447     0.2189    0
O1       O      0.8275     0.9447     0.0089    0
O1       O      0.0089     0.2189     0.8275    0
O1       O      0.2189     0.0089     0.9447    0
O1       O      0.7811     0.1725     0.0553    0
O1       O      0.9911     0.0553     0.1725    0
O1       O      0.0553     0.9911     0.7811    0
O1       O      0.1725     0.7811     0.9911    0
O1       O      0.7811     0.9911     0.1725    0
O1       O      0.9911     0.7811     0.0553    0
O1       O      0.0553     0.1725     0.9911    0
O1       O      0.1725     0.0553     0.7811    0
O1       O      0.7811     0.0553     0.9911    0
O1       O      0.9911     0.1725     0.7811    0
O1       O      0.0553     0.7811     0.1725    0
O1       O      0.1725     0.9911     0.0553    0
O2       O      0.2260     0.9900     0.0558    0
O2       O      0.7282     0.0558     0.2260    0
O2       O      0.2260     0.9900     0.7282    0
O2       O      0.0558     0.7282     0.9900    0
O2       O      0.0558     0.9900     0.2260    0
O2       O      0.2260     0.7282     0.0558    0
O2       O      0.7282     0.2260     0.9900    0
O2       O      0.9900     0.0558     0.7282    0
O2       O      0.2260     0.0558     0.9900    0
O2       O      0.0558     0.2260     0.7282    0
O2       O      0.9900     0.7282     0.2260    0
O2       O      0.7282     0.9900     0.0558    0
O2       O      0.2718     0.7740     0.9442    0
O2       O      0.0100     0.9442     0.7740    0
O2       O      0.9442     0.0100     0.2718    0
O2       O      0.7740     0.2718     0.0100    0
O2       O      0.2718     0.0100     0.7740    0
O2       O      0.0100     0.2718     0.9442    0
O2       O      0.9442     0.7740     0.0100    0
O2       O      0.7740     0.9442     0.2718    0
O2       O      0.2718     0.9442     0.0100    0
O2       O      0.0100     0.7740     0.2718    0
O2       O      0.9442     0.2718     0.7740    0
O2       O      0.7740     0.0100     0.9442    0
O2       O      0.0100     0.7740     0.9442    0
O2       O      0.2718     0.9442     0.7740    0
O2       O      0.7740     0.0100     0.2718    0
O2       O      0.9442     0.2718     0.0100    0
O2       O      0.9442     0.0100     0.7740    0
O2       O      0.7740     0.2718     0.9442    0
O2       O      0.2718     0.7740     0.0100    0
O2       O      0.0100     0.9442     0.2718    0
O2       O      0.7740     0.9442     0.0100    0
O2       O      0.9442     0.7740     0.2718    0
O2       O      0.0100     0.2718     0.7740    0
O2       O      0.2718     0.0100     0.9442    0
O2       O      0.7282     0.2260     0.0558    0
O2       O      0.9900     0.0558     0.2260    0
O2       O      0.0558     0.9900     0.7282    0
O2       O      0.2260     0.7282     0.9900    0
O2       O      0.7282     0.9900     0.2260    0
O2       O      0.9900     0.7282     0.0558    0
O2       O      0.0558     0.2260     0.9900    0
O2       O      0.2260     0.0558     0.7282    0
O2       O      0.7282     0.0558     0.9900    0
O2       O      0.9900     0.2260     0.7282    0
O2       O      0.0558     0.7282     0.2260    0
O2       O      0.9900     0.2260     0.0558    0


