data_UIO-66

_audit_creation_method RASPA-1.0
_audit_creation_date 2012-1-7
_audit_author_name 'David Dubbeldam'

_citation_author_name        'J.S. Cavka, S. Jakobsen, U. Olsbye, N. Guillou, C. Lamberti, S. Bordiga, and K.P. Lillerud'
_citation_title              'A new zirconium inorganic building brick forming metal organic frameworks with exceptional stability'
_citation_journal_abbrev     'J. Am. Chem. Soc.'
_citation_journal_volume     130
_citation_journal_number     42
_citation_page_first         13850
_citation_page_last          13851
_citation_year               2008

_cell_length_a    20.7004
_cell_length_b    20.7004
_cell_length_c    20.7004
_cell_angle_alpha 90
_cell_angle_beta  90
_cell_angle_gamma 90
_cell_volume      8870.26

_symmetry_cell_setting          triclinic
_symmetry_space_group_name_Hall 'P 1'
_symmetry_space_group_name_H-M  'P 1'
_symmetry_Int_Tables_number     1

_symmetry_equiv_pos_as_xyz 'x,y,z'

loop_
_atom_site_label
_atom_site_type_symbol
_atom_site_fract_x
_atom_site_fract_y
_atom_site_fract_z
_atom_site_charge
Zr1      Zr    0.11989      0            0            0
Zr1      Zr    0.11989      0.5          0.5          0
Zr1      Zr    0.61989      0            0.5          0
Zr1      Zr    0.61989      0.5          0            0
Zr1      Zr    0.88011      0            0            0
Zr1      Zr    0.88011      0.5          0.5          0
Zr1      Zr    0.38011      0            0.5          0
Zr1      Zr    0.38011      0.5          0            0
Zr1      Zr    0            0.11989      0            0
Zr1      Zr    0            0.61989      0.5          0
Zr1      Zr    0.5          0.11989      0.5          0
Zr1      Zr    0.5          0.61989      0            0
Zr1      Zr    0            0.88011      0            0
Zr1      Zr    0            0.38011      0.5          0
Zr1      Zr    0.5          0.88011      0.5          0
Zr1      Zr    0.5          0.38011      0            0
Zr1      Zr    0            0            0.11989      0
Zr1      Zr    0            0.5          0.61989      0
Zr1      Zr    0.5          0            0.61989      0
Zr1      Zr    0.5          0.5          0.11989      0
Zr1      Zr    0            0            0.88011      0
Zr1      Zr    0            0.5          0.38011      0
Zr1      Zr    0.5          0            0.38011      0
Zr1      Zr    0.5          0.5          0.88011      0
O1       O     0.17047      0            0.0953       0
C3       C     0.2675       0            0.1844       0
H1       H     0.27872      0            0.13048      0
O1       O     0.17047      0.5          0.5953       0
C3       C     0.2675       0.5          0.6844       0
H1       H     0.27872      0.5          0.63048      0
O1       O     0.67047      0            0.5953       0
C3       C     0.7675       0            0.6844       0
H1       H     0.77872      0            0.63048      0
O1       O     0.67047      0.5          0.0953       0
C3       C     0.7675       0.5          0.1844       0
H1       H     0.77872      0.5          0.13048      0
O1       O     0.82953      0            0.0953       0
C3       C     0.7325       0            0.1844       0
H1       H     0.72128      0            0.13048      0
O1       O     0.82953      0.5          0.5953       0
C3       C     0.7325       0.5          0.6844       0
H1       H     0.72128      0.5          0.63048      0
O1       O     0.32953      0            0.5953       0
C3       C     0.2325       0            0.6844       0
H1       H     0.22128      0            0.63048      0
O1       O     0.32953      0.5          0.0953       0
C3       C     0.2325       0.5          0.1844       0
H1       H     0.22128      0.5          0.13048      0
O1       O     0.82953      0            0.9047       0
C3       C     0.7325       0            0.8156       0
H1       H     0.72128      0            0.86952      0
O1       O     0.82953      0.5          0.4047       0
C3       C     0.7325       0.5          0.3156       0
H1       H     0.72128      0.5          0.36952      0
O1       O     0.32953      0            0.4047       0
C3       C     0.2325       0            0.3156       0
H1       H     0.22128      0            0.36952      0
O1       O     0.32953      0.5          0.9047       0
C3       C     0.2325       0.5          0.8156       0
H1       H     0.22128      0.5          0.86952      0
O1       O     0.17047      0            0.9047       0
C3       C     0.2675       0            0.8156       0
H1       H     0.27872      0            0.86952      0
O1       O     0.17047      0.5          0.4047       0
C3       C     0.2675       0.5          0.3156       0
H1       H     0.27872      0.5          0.36952      0
O1       O     0.67047      0            0.4047       0
C3       C     0.7675       0            0.3156       0
H1       H     0.77872      0            0.36952      0
O1       O     0.67047      0.5          0.9047       0
C3       C     0.7675       0.5          0.8156       0
H1       H     0.77872      0.5          0.86952      0
O1       O     0.0953       0.17047      0            0
C3       C     0.1844       0.2675       0            0
H1       H     0.13048      0.27872      0            0
O1       O     0.0953       0.67047      0.5          0
C3       C     0.1844       0.7675       0.5          0
H1       H     0.13048      0.77872      0.5          0
O1       O     0.5953       0.17047      0.5          0
C3       C     0.6844       0.2675       0.5          0
H1       H     0.63048      0.27872      0.5          0
O1       O     0.5953       0.67047      0            0
C3       C     0.6844       0.7675       0            0
H1       H     0.63048      0.77872      0            0
O1       O     0.0953       0.82953      0            0
C3       C     0.1844       0.7325       0            0
H1       H     0.13048      0.72128      0            0
O1       O     0.0953       0.32953      0.5          0
C3       C     0.1844       0.2325       0.5          0
H1       H     0.13048      0.22128      0.5          0
O1       O     0.5953       0.82953      0.5          0
C3       C     0.6844       0.7325       0.5          0
H1       H     0.63048      0.72128      0.5          0
O1       O     0.5953       0.32953      0            0
C3       C     0.6844       0.2325       0            0
H1       H     0.63048      0.22128      0            0
O1       O     0.9047       0.82953      0            0
C3       C     0.8156       0.7325       0            0
H1       H     0.86952      0.72128      0            0
O1       O     0.9047       0.32953      0.5          0
C3       C     0.8156       0.2325       0.5          0
H1       H     0.86952      0.22128      0.5          0
O1       O     0.4047       0.82953      0.5          0
C3       C     0.3156       0.7325       0.5          0
H1       H     0.36952      0.72128      0.5          0
O1       O     0.4047       0.32953      0            0
C3       C     0.3156       0.2325       0            0
H1       H     0.36952      0.22128      0            0
O1       O     0.9047       0.17047      0            0
C3       C     0.8156       0.2675       0            0
H1       H     0.86952      0.27872      0            0
O1       O     0.9047       0.67047      0.5          0
C3       C     0.8156       0.7675       0.5          0
H1       H     0.86952      0.77872      0.5          0
O1       O     0.4047       0.17047      0.5          0
C3       C     0.3156       0.2675       0.5          0
H1       H     0.36952      0.27872      0.5          0
O1       O     0.4047       0.67047      0            0
C3       C     0.3156       0.7675       0            0
H1       H     0.36952      0.77872      0            0
O1       O     0            0.0953       0.17047      0
C3       C     0            0.1844       0.2675       0
H1       H     0            0.13048      0.27872      0
O1       O     0            0.5953       0.67047      0
C3       C     0            0.6844       0.7675       0
H1       H     0            0.63048      0.77872      0
O1       O     0.5          0.0953       0.67047      0
C3       C     0.5          0.1844       0.7675       0
H1       H     0.5          0.13048      0.77872      0
O1       O     0.5          0.5953       0.17047      0
C3       C     0.5          0.6844       0.2675       0
H1       H     0.5          0.63048      0.27872      0
O1       O     0            0.0953       0.82953      0
C3       C     0            0.1844       0.7325       0
H1       H     0            0.13048      0.72128      0
O1       O     0            0.5953       0.32953      0
C3       C     0            0.6844       0.2325       0
H1       H     0            0.63048      0.22128      0
O1       O     0.5          0.0953       0.32953      0
C3       C     0.5          0.1844       0.2325       0
H1       H     0.5          0.13048      0.22128      0
O1       O     0.5          0.5953       0.82953      0
C3       C     0.5          0.6844       0.7325       0
H1       H     0.5          0.63048      0.72128      0
O1       O     0            0.9047       0.82953      0
C3       C     0            0.8156       0.7325       0
H1       H     0            0.86952      0.72128      0
O1       O     0            0.4047       0.32953      0
C3       C     0            0.3156       0.2325       0
H1       H     0            0.36952      0.22128      0
O1       O     0.5          0.9047       0.32953      0
C3       C     0.5          0.8156       0.2325       0
H1       H     0.5          0.86952      0.22128      0
O1       O     0.5          0.4047       0.82953      0
C3       C     0.5          0.3156       0.7325       0
H1       H     0.5          0.36952      0.72128      0
O1       O     0            0.9047       0.17047      0
C3       C     0            0.8156       0.2675       0
H1       H     0            0.86952      0.27872      0
O1       O     0            0.4047       0.67047      0
C3       C     0            0.3156       0.7675       0
H1       H     0            0.36952      0.77872      0
O1       O     0.5          0.9047       0.67047      0
C3       C     0.5          0.8156       0.7675       0
H1       H     0.5          0.86952      0.77872      0
O1       O     0.5          0.4047       0.17047      0
C3       C     0.5          0.3156       0.2675       0
H1       H     0.5          0.36952      0.27872      0
O1       O     0            0.17047      0.9047       0
C3       C     0            0.2675       0.8156       0
H1       H     0            0.27872      0.86952      0
O1       O     0            0.67047      0.4047       0
C3       C     0            0.7675       0.3156       0
H1       H     0            0.77872      0.36952      0
O1       O     0.5          0.17047      0.4047       0
C3       C     0.5          0.2675       0.3156       0
H1       H     0.5          0.27872      0.36952      0
O1       O     0.5          0.67047      0.9047       0
C3       C     0.5          0.7675       0.8156       0
H1       H     0.5          0.77872      0.86952      0
O1       O     0            0.82953      0.9047       0
C3       C     0            0.7325       0.8156       0
H1       H     0            0.72128      0.86952      0
O1       O     0            0.32953      0.4047       0
C3       C     0            0.2325       0.3156       0
H1       H     0            0.22128      0.36952      0
O1       O     0.5          0.82953      0.4047       0
C3       C     0.5          0.7325       0.3156       0
H1       H     0.5          0.72128      0.36952      0
O1       O     0.5          0.32953      0.9047       0
C3       C     0.5          0.2325       0.8156       0
H1       H     0.5          0.22128      0.86952      0
O1       O     0            0.82953      0.0953       0
C3       C     0            0.7325       0.1844       0
H1       H     0            0.72128      0.13048      0
O1       O     0            0.32953      0.5953       0
C3       C     0            0.2325       0.6844       0
H1       H     0            0.22128      0.63048      0
O1       O     0.5          0.82953      0.5953       0
C3       C     0.5          0.7325       0.6844       0
H1       H     0.5          0.72128      0.63048      0
O1       O     0.5          0.32953      0.0953       0
C3       C     0.5          0.2325       0.1844       0
H1       H     0.5          0.22128      0.13048      0
O1       O     0            0.17047      0.0953       0
C3       C     0            0.2675       0.1844       0
H1       H     0            0.27872      0.13048      0
O1       O     0            0.67047      0.5953       0
C3       C     0            0.7675       0.6844       0
H1       H     0            0.77872      0.63048      0
O1       O     0.5          0.17047      0.5953       0
C3       C     0.5          0.2675       0.6844       0
H1       H     0.5          0.27872      0.63048      0
O1       O     0.5          0.67047      0.0953       0
C3       C     0.5          0.7675       0.1844       0
H1       H     0.5          0.77872      0.13048      0
O1       O     0.17047      0.0953       0            0
C3       C     0.2675       0.1844       0            0
H1       H     0.27872      0.13048      0            0
O1       O     0.17047      0.5953       0.5          0
C3       C     0.2675       0.6844       0.5          0
H1       H     0.27872      0.63048      0.5          0
O1       O     0.67047      0.0953       0.5          0
C3       C     0.7675       0.1844       0.5          0
H1       H     0.77872      0.13048      0.5          0
O1       O     0.67047      0.5953       0            0
C3       C     0.7675       0.6844       0            0
H1       H     0.77872      0.63048      0            0
O1       O     0.82953      0.0953       0            0
C3       C     0.7325       0.1844       0            0
H1       H     0.72128      0.13048      0            0
O1       O     0.82953      0.5953       0.5          0
C3       C     0.7325       0.6844       0.5          0
H1       H     0.72128      0.63048      0.5          0
O1       O     0.32953      0.0953       0.5          0
C3       C     0.2325       0.1844       0.5          0
H1       H     0.22128      0.13048      0.5          0
O1       O     0.32953      0.5953       0            0
C3       C     0.2325       0.6844       0            0
H1       H     0.22128      0.63048      0            0
O1       O     0.82953      0.9047       0            0
C3       C     0.7325       0.8156       0            0
H1       H     0.72128      0.86952      0            0
O1       O     0.82953      0.4047       0.5          0
C3       C     0.7325       0.3156       0.5          0
H1       H     0.72128      0.36952      0.5          0
O1       O     0.32953      0.9047       0.5          0
C3       C     0.2325       0.8156       0.5          0
H1       H     0.22128      0.86952      0.5          0
O1       O     0.32953      0.4047       0            0
C3       C     0.2325       0.3156       0            0
H1       H     0.22128      0.36952      0            0
O1       O     0.17047      0.9047       0            0
C3       C     0.2675       0.8156       0            0
H1       H     0.27872      0.86952      0            0
O1       O     0.17047      0.4047       0.5          0
C3       C     0.2675       0.3156       0.5          0
H1       H     0.27872      0.36952      0.5          0
O1       O     0.67047      0.9047       0.5          0
C3       C     0.7675       0.8156       0.5          0
H1       H     0.77872      0.86952      0.5          0
O1       O     0.67047      0.4047       0            0
C3       C     0.7675       0.3156       0            0
H1       H     0.77872      0.36952      0            0
O1       O     0.0953       0            0.82953      0
C3       C     0.1844       0            0.7325       0
H1       H     0.13048      0            0.72128      0
O1       O     0.0953       0.5          0.32953      0
C3       C     0.1844       0.5          0.2325       0
H1       H     0.13048      0.5          0.22128      0
O1       O     0.5953       0            0.32953      0
C3       C     0.6844       0            0.2325       0
H1       H     0.63048      0            0.22128      0
O1       O     0.5953       0.5          0.82953      0
C3       C     0.6844       0.5          0.7325       0
H1       H     0.63048      0.5          0.72128      0
O1       O     0.0953       0            0.17047      0
C3       C     0.1844       0            0.2675       0
H1       H     0.13048      0            0.27872      0
O1       O     0.0953       0.5          0.67047      0
C3       C     0.1844       0.5          0.7675       0
H1       H     0.13048      0.5          0.77872      0
O1       O     0.5953       0            0.67047      0
C3       C     0.6844       0            0.7675       0
H1       H     0.63048      0            0.77872      0
O1       O     0.5953       0.5          0.17047      0
C3       C     0.6844       0.5          0.2675       0
H1       H     0.63048      0.5          0.27872      0
O1       O     0.9047       0            0.17047      0
C3       C     0.8156       0            0.2675       0
H1       H     0.86952      0            0.27872      0
O1       O     0.9047       0.5          0.67047      0
C3       C     0.8156       0.5          0.7675       0
H1       H     0.86952      0.5          0.77872      0
O1       O     0.4047       0            0.67047      0
C3       C     0.3156       0            0.7675       0
H1       H     0.36952      0            0.77872      0
O1       O     0.4047       0.5          0.17047      0
C3       C     0.3156       0.5          0.2675       0
H1       H     0.36952      0.5          0.27872      0
O1       O     0.9047       0            0.82953      0
C3       C     0.8156       0            0.7325       0
H1       H     0.86952      0            0.72128      0
O1       O     0.9047       0.5          0.32953      0
C3       C     0.8156       0.5          0.2325       0
H1       H     0.86952      0.5          0.22128      0
O1       O     0.4047       0            0.32953      0
C3       C     0.3156       0            0.2325       0
H1       H     0.36952      0            0.22128      0
O1       O     0.4047       0.5          0.82953      0
C3       C     0.3156       0.5          0.7325       0
H1       H     0.36952      0.5          0.72128      0
O2       O     0.0561       0.4439       0.4439       0
O2       O     0.5561       0.9439       0.4439       0
O2       O     0.5561       0.4439       0.9439       0
O2       O     0.4439       0.0561       0.4439       0
O2       O     0.4439       0.5561       0.9439       0
O2       O     0.9439       0.9439       0.0561       0
O2       O     0.9439       0.4439       0.5561       0
O2       O     0.0561       0.0561       0.0561       0
O2       O     0.5561       0.5561       0.0561       0
O2       O     0.9439       0.0561       0.0561       0
O2       O     0.9439       0.5561       0.5561       0
O2       O     0.4439       0.0561       0.5561       0
O2       O     0.4439       0.5561       0.0561       0
O2       O     0.0561       0.9439       0.0561       0
O2       O     0.0561       0.4439       0.5561       0
O2       O     0.5561       0.9439       0.5561       0
O2       O     0.5561       0.4439       0.0561       0
O2       O     0.9439       0.9439       0.9439       0
O2       O     0.9439       0.4439       0.4439       0
O2       O     0.4439       0.9439       0.4439       0
O2       O     0.4439       0.4439       0.9439       0
O2       O     0.0561       0.0561       0.9439       0
O2       O     0.0561       0.5561       0.4439       0
O2       O     0.5561       0.0561       0.4439       0
C1       C     0.1536       0            0.8464       0
C1       C     0.1536       0.5          0.3464       0
C1       C     0.6536       0            0.3464       0
C1       C     0.6536       0.5          0.8464       0
C1       C     0.8464       0            0.8464       0
C1       C     0.8464       0.5          0.3464       0
C1       C     0.3464       0            0.3464       0
C1       C     0.3464       0.5          0.8464       0
C1       C     0.8464       0            0.1536       0
C1       C     0.8464       0.5          0.6536       0
C1       C     0.3464       0            0.6536       0
C1       C     0.3464       0.5          0.1536       0
C1       C     0.1536       0            0.1536       0
C1       C     0.1536       0.5          0.6536       0
C1       C     0.6536       0            0.6536       0
C1       C     0.6536       0.5          0.1536       0
C1       C     0.8464       0.1536       0            0
C1       C     0.8464       0.6536       0.5          0
C1       C     0.3464       0.1536       0.5          0
C1       C     0.3464       0.6536       0            0
C1       C     0.8464       0.8464       0            0
C1       C     0.8464       0.3464       0.5          0
C1       C     0.3464       0.8464       0.5          0
C1       C     0.3464       0.3464       0            0
C1       C     0.1536       0.8464       0            0
C1       C     0.1536       0.3464       0.5          0
C1       C     0.6536       0.8464       0.5          0
C1       C     0.6536       0.3464       0            0
C1       C     0.1536       0.1536       0            0
C1       C     0.1536       0.6536       0.5          0
C1       C     0.6536       0.1536       0.5          0
C1       C     0.6536       0.6536       0            0
C1       C     0            0.8464       0.1536       0
C1       C     0            0.3464       0.6536       0
C1       C     0.5          0.8464       0.6536       0
C1       C     0.5          0.3464       0.1536       0
C1       C     0            0.8464       0.8464       0
C1       C     0            0.3464       0.3464       0
C1       C     0.5          0.8464       0.3464       0
C1       C     0.5          0.3464       0.8464       0
C1       C     0            0.1536       0.8464       0
C1       C     0            0.6536       0.3464       0
C1       C     0.5          0.1536       0.3464       0
C1       C     0.5          0.6536       0.8464       0
C1       C     0            0.1536       0.1536       0
C1       C     0            0.6536       0.6536       0
C1       C     0.5          0.1536       0.6536       0
C1       C     0.5          0.6536       0.1536       0
C2       C     0.205        0            0.205        0
C2       C     0.205        0.5          0.705        0
C2       C     0.705        0            0.705        0
C2       C     0.705        0.5          0.205        0
C2       C     0.795        0            0.205        0
C2       C     0.795        0.5          0.705        0
C2       C     0.295        0            0.705        0
C2       C     0.295        0.5          0.205        0
C2       C     0.795        0            0.795        0
C2       C     0.795        0.5          0.295        0
C2       C     0.295        0            0.295        0
C2       C     0.295        0.5          0.795        0
C2       C     0.205        0            0.795        0
C2       C     0.205        0.5          0.295        0
C2       C     0.705        0            0.295        0
C2       C     0.705        0.5          0.795        0
C2       C     0.205        0.205        0            0
C2       C     0.205        0.705        0.5          0
C2       C     0.705        0.205        0.5          0
C2       C     0.705        0.705        0            0
C2       C     0.205        0.795        0            0
C2       C     0.205        0.295        0.5          0
C2       C     0.705        0.795        0.5          0
C2       C     0.705        0.295        0            0
C2       C     0.795        0.795        0            0
C2       C     0.795        0.295        0.5          0
C2       C     0.295        0.795        0.5          0
C2       C     0.295        0.295        0            0
C2       C     0.795        0.205        0            0
C2       C     0.795        0.705        0.5          0
C2       C     0.295        0.205        0.5          0
C2       C     0.295        0.705        0            0
C2       C     0            0.205        0.205        0
C2       C     0            0.705        0.705        0
C2       C     0.5          0.205        0.705        0
C2       C     0.5          0.705        0.205        0
C2       C     0            0.205        0.795        0
C2       C     0            0.705        0.295        0
C2       C     0.5          0.205        0.295        0
C2       C     0.5          0.705        0.795        0
C2       C     0            0.795        0.795        0
C2       C     0            0.295        0.295        0
C2       C     0.5          0.795        0.295        0
C2       C     0.5          0.295        0.795        0
C2       C     0            0.795        0.205        0
C2       C     0            0.295        0.705        0
C2       C     0.5          0.795        0.705        0
C2       C     0.5          0.295        0.205        0


