data_UMCM-1

_audit_creation_method RASPA-1.0
_audit_creation_date 2012-1-8
_audit_author_name 'David Dubbeldam'

_citation_author_name        'K. Koh, A.G. Wong-Foy, and A.J. Matzger'
_citation_title              'A Crystalline Mesoporous Coordination Copolymer with High Microporosity'
_citation_journal_abbrev     'Ang. Chem. Int. Ed.'
_citation_journal_volume     120
_citation_journal_number     4
_citation_page_first         689
_citation_page_last          692
_citation_year               2008

_cell_length_a    41.5262
_cell_length_b    41.5262
_cell_length_c    17.4916
_cell_angle_alpha 90
_cell_angle_beta  90
_cell_angle_gamma 120
_cell_volume      26121.9

_symmetry_cell_setting          triclinic
_symmetry_space_group_name_Hall 'P 1'
_symmetry_space_group_name_H-M  'P 1'
_symmetry_Int_Tables_number     1

_symmetry_equiv_pos_as_xyz 'x,y,z'

loop_
_atom_site_label
_atom_site_type_symbol
_atom_site_fract_x
_atom_site_fract_y
_atom_site_fract_z
_atom_site_charge
Zn1      Zn    0.3717       0.40178      0.6594       0
O1       O     0.44036      0.48834      0.66172      0
O1       O     0.29409      0.40576      0.6565       0
O1       O     0.32984      0.38893      0.59358      0
O1       O     0.37194      0.35689      0.68635      0
O1       O     0.41627      0.43381      0.60158      0
C1       C     0.44022      0.46764      0.6095       0
C2       C     0.47125      0.48438      0.5524       0
C3       C     0.47281      0.46394      0.4927       0
H1       H     0.4542       0.4387       0.4876       0
C3       C     0.49836      0.52102      0.5589       0
H1       H     0.4977       0.5354       0.5989       0
C4       C     0.303        0.39458      0.5982       0
C5       C     0.28037      0.38864      0.5282       0
C6       C     0.25427      0.39989      0.523        0
H2       H     0.2498       0.4107       0.5651       0
C7       C     0.23496      0.39527      0.4567       0
H3       H     0.2172       0.4027       0.4555       0
C8       C     0.24069      0.38026      0.3922       0
C7       C     0.26575      0.36747      0.3984       0
H3       H     0.2696       0.3558       0.357        0
C6       C     0.28522      0.37195      0.4663       0
H2       H     0.3019       0.3633       0.469        0
C9       C     0.22157      0.37804      0.3191       0
C10      C     0.18659      0.37495      0.3183       0
H4       H     0.1748       0.3735       0.3644       0
C7       C     0.1091       0.359        0.187        0
H3       H     0.1162       0.351        0.1437       0
C6       C     0.0757       0.3576       0.1896       0
H2       H     0.0595       0.3468       0.1487       0
C6       C     0.0871       0.3846       0.3137       0
H2       H     0.08         0.3925       0.3571       0
C7       C     0.1209       0.3855       0.3092       0
H3       H     0.137        0.396        0.3504       0
Zn1      Zn    0.59822      0.96992      0.6594       0
O1       O     0.51166      0.95202      0.66172      0
O1       O     0.59424      0.88833      0.6565       0
O1       O     0.61107      0.94091      0.59358      0
O1       O     0.64311      0.01505      0.68635      0
O1       O     0.56619      0.98246      0.60158      0
C1       C     0.53236      0.97258      0.6095       0
C2       C     0.51562      0.98687      0.5524       0
C3       C     0.53606      0.00887      0.4927       0
H1       H     0.5613       0.0155       0.4876       0
C3       C     0.47898      0.97734      0.5589       0
H1       H     0.4646       0.9623       0.5989       0
C4       C     0.60542      0.90842      0.5982       0
C5       C     0.61136      0.89173      0.5282       0
C6       C     0.60011      0.85438      0.523        0
H2       H     0.5893       0.8391       0.5651       0
C7       C     0.60473      0.83969      0.4567       0
H3       H     0.5973       0.8145       0.4555       0
C8       C     0.61974      0.86043      0.3922       0
C7       C     0.63253      0.89828      0.3984       0
H3       H     0.6442       0.9138       0.357        0
C6       C     0.62805      0.91327      0.4663       0
H2       H     0.6367       0.9386       0.469        0
C9       C     0.62196      0.84353      0.3191       0
C10      C     0.62505      0.81164      0.3183       0
H4       H     0.6265       0.8013       0.3644       0
Zn1      Zn    0.03008      0.6283       0.6594       0
O1       O     0.04798      0.55964      0.66172      0
O1       O     0.11167      0.70591      0.6565       0
O1       O     0.05909      0.67016      0.59358      0
O1       O     0.98495      0.62806      0.68635      0
O1       O     0.01754      0.58373      0.60158      0
C1       C     0.02742      0.55978      0.6095       0
C2       C     0.01313      0.52875      0.5524       0
C3       C     0.99113      0.52719      0.4927       0
H1       H     0.9845       0.5458       0.4876       0
C3       C     0.02266      0.50164      0.5589       0
H1       H     0.0377       0.5023       0.5989       0
C4       C     0.09158      0.697        0.5982       0
C5       C     0.10827      0.71963      0.5282       0
C6       C     0.14562      0.74573      0.523        0
H2       H     0.1609       0.7502       0.5651       0
C7       C     0.16031      0.76504      0.4567       0
H3       H     0.1855       0.7828       0.4555       0
C8       C     0.13957      0.75931      0.3922       0
C7       C     0.10172      0.73425      0.3984       0
H3       H     0.0862       0.7304       0.357        0
C6       C     0.08673      0.71478      0.4663       0
H2       H     0.0614       0.6981       0.469        0
C9       C     0.15647      0.77843      0.3191       0
C10      C     0.18836      0.81341      0.3183       0
H4       H     0.1987       0.8252       0.3644       0
C7       C     0.2499       0.8909       0.187        0
H3       H     0.2348       0.8838       0.1437       0
C6       C     0.2819       0.9243       0.1896       0
H2       H     0.2873       0.9405       0.1487       0
C6       C     0.2975       0.9129       0.3137       0
H2       H     0.3125       0.92         0.3571       0
C7       C     0.2646       0.8791       0.3092       0
H3       H     0.259        0.863        0.3504       0
Zn1      Zn    0.6283       0.59822      0.1594       0
O1       O     0.55964      0.51166      0.16172      0
O1       O     0.70591      0.59424      0.1565       0
O1       O     0.67016      0.61107      0.09358      0
O1       O     0.62806      0.64311      0.18635      0
O1       O     0.58373      0.56619      0.10158      0
C1       C     0.55978      0.53236      0.1095       0
C2       C     0.52875      0.51562      0.0524       0
C3       C     0.52719      0.53606      0.9927       0
H1       H     0.5458       0.5613       0.9876       0
C3       C     0.50164      0.47898      0.0589       0
H1       H     0.5023       0.4646       0.0989       0
C4       C     0.697        0.60542      0.0982       0
C5       C     0.71963      0.61136      0.0282       0
C6       C     0.74573      0.60011      0.023        0
H2       H     0.7502       0.5893       0.0651       0
C7       C     0.76504      0.60473      0.9567       0
H3       H     0.7828       0.5973       0.9555       0
C8       C     0.75931      0.61974      0.8922       0
C7       C     0.73425      0.63253      0.8984       0
H3       H     0.7304       0.6442       0.857        0
C6       C     0.71478      0.62805      0.9663       0
H2       H     0.6981       0.6367       0.969        0
C9       C     0.77843      0.62196      0.8191       0
C10      C     0.81341      0.62505      0.8183       0
H4       H     0.8252       0.6265       0.8644       0
C6       C     0.6784       0.4614       0.2822       0
H2       H     0.6967       0.4838       0.3026       0
C7       C     0.683        0.431        0.283        0
H3       H     0.7041       0.4326       0.3053       0
C7       C     0.6234       0.3943       0.2242       0
H3       H     0.6044       0.3716       0.2066       0
C6       C     0.6187       0.42481      0.2238       0
H2       H     0.5966       0.4224       0.2054       0
Zn1      Zn    0.40178      0.03008      0.1594       0
O1       O     0.48834      0.04798      0.16172      0
O1       O     0.40576      0.11167      0.1565       0
O1       O     0.38893      0.05909      0.09358      0
O1       O     0.35689      0.98495      0.18635      0
O1       O     0.43381      0.01754      0.10158      0
C1       C     0.46764      0.02742      0.1095       0
C2       C     0.48438      0.01313      0.0524       0
C3       C     0.46394      0.99113      0.9927       0
H1       H     0.4387       0.9845       0.9876       0
C3       C     0.52102      0.02266      0.0589       0
H1       H     0.5354       0.0377       0.0989       0
C4       C     0.39458      0.09158      0.0982       0
C5       C     0.38864      0.10827      0.0282       0
C6       C     0.39989      0.14562      0.023        0
H2       H     0.4107       0.1609       0.0651       0
C7       C     0.39527      0.16031      0.9567       0
H3       H     0.4027       0.1855       0.9555       0
C8       C     0.38026      0.13957      0.8922       0
C7       C     0.36747      0.10172      0.8984       0
H3       H     0.3558       0.0862       0.857        0
C6       C     0.37195      0.08673      0.9663       0
H2       H     0.3633       0.0614       0.969        0
C9       C     0.37804      0.15647      0.8191       0
C10      C     0.37495      0.18836      0.8183       0
H4       H     0.3735       0.1987       0.8644       0
Zn1      Zn    0.96992      0.3717       0.1594       0
O1       O     0.95202      0.44036      0.16172      0
O1       O     0.88833      0.29409      0.1565       0
O1       O     0.94091      0.32984      0.09358      0
O1       O     0.01505      0.37194      0.18635      0
O1       O     0.98246      0.41627      0.10158      0
C1       C     0.97258      0.44022      0.1095       0
C2       C     0.98687      0.47125      0.0524       0
C3       C     0.00887      0.47281      0.9927       0
H1       H     0.0155       0.4542       0.9876       0
C3       C     0.97734      0.49836      0.0589       0
H1       H     0.9623       0.4977       0.0989       0
C4       C     0.90842      0.303        0.0982       0
C5       C     0.89173      0.28037      0.0282       0
C6       C     0.85438      0.25427      0.023        0
H2       H     0.8391       0.2498       0.0651       0
C7       C     0.83969      0.23496      0.9567       0
H3       H     0.8145       0.2172       0.9555       0
C8       C     0.86043      0.24069      0.8922       0
C7       C     0.89828      0.26575      0.8984       0
H3       H     0.9138       0.2696       0.857        0
C6       C     0.91327      0.28522      0.9663       0
H2       H     0.9386       0.3019       0.969        0
C9       C     0.84353      0.22157      0.8191       0
C10      C     0.81164      0.18659      0.8183       0
H4       H     0.8013       0.1748       0.8644       0
Zn1      Zn    0.6283       0.59822      0.3406       0
O1       O     0.55964      0.51166      0.33828      0
O1       O     0.70591      0.59424      0.3435       0
O1       O     0.67016      0.61107      0.40642      0
O1       O     0.62806      0.64311      0.31365      0
O1       O     0.58373      0.56619      0.39842      0
C1       C     0.55978      0.53236      0.3905       0
C2       C     0.52875      0.51562      0.4476       0
C3       C     0.52719      0.53606      0.5073       0
H1       H     0.5458       0.5613       0.5124       0
C3       C     0.50164      0.47898      0.4411       0
H1       H     0.5023       0.4646       0.4011       0
C4       C     0.697        0.60542      0.4018       0
C5       C     0.71963      0.61136      0.4718       0
C6       C     0.74573      0.60011      0.477        0
H2       H     0.7502       0.5893       0.4349       0
C7       C     0.76504      0.60473      0.5433       0
H3       H     0.7828       0.5973       0.5445       0
C8       C     0.75931      0.61974      0.6078       0
C7       C     0.73425      0.63253      0.6016       0
H3       H     0.7304       0.6442       0.643        0
C6       C     0.71478      0.62805      0.5337       0
H2       H     0.6981       0.6367       0.531        0
C9       C     0.77843      0.62196      0.6809       0
C10      C     0.81341      0.62505      0.6817       0
H4       H     0.8252       0.6265       0.6356       0
C7       C     0.8909       0.641        0.813        0
H3       H     0.8838       0.649        0.8563       0
C6       C     0.9243       0.6424       0.8104       0
H2       H     0.9405       0.6532       0.8513       0
C6       C     0.9129       0.6154       0.6863       0
H2       H     0.92         0.6075       0.6429       0
C7       C     0.8791       0.6145       0.6908       0
H3       H     0.863        0.604        0.6496       0
Zn1      Zn    0.40178      0.03008      0.3406       0
O1       O     0.48834      0.04798      0.33828      0
O1       O     0.40576      0.11167      0.3435       0
O1       O     0.38893      0.05909      0.40642      0
O1       O     0.35689      0.98495      0.31365      0
O1       O     0.43381      0.01754      0.39842      0
C1       C     0.46764      0.02742      0.3905       0
C2       C     0.48438      0.01313      0.4476       0
C3       C     0.46394      0.99113      0.5073       0
H1       H     0.4387       0.9845       0.5124       0
C3       C     0.52102      0.02266      0.4411       0
H1       H     0.5354       0.0377       0.4011       0
C4       C     0.39458      0.09158      0.4018       0
C5       C     0.38864      0.10827      0.4718       0
C6       C     0.39989      0.14562      0.477        0
H2       H     0.4107       0.1609       0.4349       0
C7       C     0.39527      0.16031      0.5433       0
H3       H     0.4027       0.1855       0.5445       0
C8       C     0.38026      0.13957      0.6078       0
C7       C     0.36747      0.10172      0.6016       0
H3       H     0.3558       0.0862       0.643        0
C6       C     0.37195      0.08673      0.5337       0
H2       H     0.3633       0.0614       0.531        0
C9       C     0.37804      0.15647      0.6809       0
C10      C     0.37495      0.18836      0.6817       0
H4       H     0.3735       0.1987       0.6356       0
C7       C     0.359        0.2499       0.813        0
H3       H     0.351        0.2348       0.8563       0
C6       C     0.3576       0.2819       0.8104       0
H2       H     0.3468       0.2873       0.8513       0
C6       C     0.3846       0.2975       0.6863       0
H2       H     0.3925       0.3125       0.6429       0
C7       C     0.3855       0.2646       0.6908       0
H3       H     0.396        0.259        0.6496       0
C6       C     0.5386       0.217        0.2178       0
H2       H     0.5162       0.2129       0.1974       0
C7       C     0.569        0.252        0.217        0
H3       H     0.5674       0.2715       0.1947       0
C7       C     0.6057       0.2291       0.2758       0
H3       H     0.6284       0.2328       0.2934       0
C6       C     0.57519      0.19389      0.2762       0
H2       H     0.5776       0.1742       0.2946       0
Zn1      Zn    0.96992      0.3717       0.3406       0
O1       O     0.95202      0.44036      0.33828      0
O1       O     0.88833      0.29409      0.3435       0
O1       O     0.94091      0.32984      0.40642      0
O1       O     0.01505      0.37194      0.31365      0
O1       O     0.98246      0.41627      0.39842      0
C1       C     0.97258      0.44022      0.3905       0
C2       C     0.98687      0.47125      0.4476       0
C3       C     0.00887      0.47281      0.5073       0
H1       H     0.0155       0.4542       0.5124       0
C3       C     0.97734      0.49836      0.4411       0
H1       H     0.9623       0.4977       0.4011       0
C4       C     0.90842      0.303        0.4018       0
C5       C     0.89173      0.28037      0.4718       0
C6       C     0.85438      0.25427      0.477        0
H2       H     0.8391       0.2498       0.4349       0
C7       C     0.83969      0.23496      0.5433       0
H3       H     0.8145       0.2172       0.5445       0
C8       C     0.86043      0.24069      0.6078       0
C7       C     0.89828      0.26575      0.6016       0
H3       H     0.9138       0.2696       0.643        0
C6       C     0.91327      0.28522      0.5337       0
H2       H     0.9386       0.3019       0.531        0
C9       C     0.84353      0.22157      0.6809       0
C10      C     0.81164      0.18659      0.6817       0
H4       H     0.8013       0.1748       0.6356       0
C7       C     0.7501       0.1091       0.813        0
H3       H     0.7652       0.1162       0.8563       0
C6       C     0.7181       0.0757       0.8104       0
H2       H     0.7127       0.0595       0.8513       0
C6       C     0.7025       0.0871       0.6863       0
H2       H     0.6875       0.08         0.6429       0
C7       C     0.7354       0.1209       0.6908       0
H3       H     0.741        0.137        0.6496       0
C6       C     0.783        0.3216       0.2178       0
H2       H     0.7871       0.3033       0.1974       0
C7       C     0.748        0.317        0.217        0
H3       H     0.7285       0.2959       0.1947       0
C7       C     0.7709       0.3766       0.2758       0
H3       H     0.7672       0.3956       0.2934       0
C6       C     0.80611      0.3813       0.2762       0
H2       H     0.8258       0.4034       0.2946       0
Zn1      Zn    0.3717       0.40178      0.8406       0
O1       O     0.44036      0.48834      0.83828      0
O1       O     0.29409      0.40576      0.8435       0
O1       O     0.32984      0.38893      0.90642      0
O1       O     0.37194      0.35689      0.81365      0
O1       O     0.41627      0.43381      0.89842      0
C1       C     0.44022      0.46764      0.8905       0
C2       C     0.47125      0.48438      0.9476       0
C3       C     0.47281      0.46394      0.0073       0
H1       H     0.4542       0.4387       0.0124       0
C3       C     0.49836      0.52102      0.9411       0
H1       H     0.4977       0.5354       0.9011       0
C4       C     0.303        0.39458      0.9018       0
C5       C     0.28037      0.38864      0.9718       0
C6       C     0.25427      0.39989      0.977        0
H2       H     0.2498       0.4107       0.9349       0
C7       C     0.23496      0.39527      0.0433       0
H3       H     0.2172       0.4027       0.0445       0
C8       C     0.24069      0.38026      0.1078       0
C7       C     0.26575      0.36747      0.1016       0
H3       H     0.2696       0.3558       0.143        0
C6       C     0.28522      0.37195      0.0337       0
H2       H     0.3019       0.3633       0.031        0
C9       C     0.22157      0.37804      0.1809       0
C10      C     0.18659      0.37495      0.1817       0
H4       H     0.1748       0.3735       0.1356       0
C6       C     0.3216       0.5386       0.7178       0
H2       H     0.3033       0.5162       0.6974       0
C7       C     0.317        0.569        0.717        0
H3       H     0.2959       0.5674       0.6947       0
C7       C     0.3766       0.6057       0.7758       0
H3       H     0.3956       0.6284       0.7934       0
C6       C     0.3813       0.57519      0.7762       0
H2       H     0.4034       0.5776       0.7946       0
Zn1      Zn    0.59822      0.96992      0.8406       0
O1       O     0.51166      0.95202      0.83828      0
O1       O     0.59424      0.88833      0.8435       0
O1       O     0.61107      0.94091      0.90642      0
O1       O     0.64311      0.01505      0.81365      0
O1       O     0.56619      0.98246      0.89842      0
C1       C     0.53236      0.97258      0.8905       0
C2       C     0.51562      0.98687      0.9476       0
C3       C     0.53606      0.00887      0.0073       0
H1       H     0.5613       0.0155       0.0124       0
C3       C     0.47898      0.97734      0.9411       0
H1       H     0.4646       0.9623       0.9011       0
C4       C     0.60542      0.90842      0.9018       0
C5       C     0.61136      0.89173      0.9718       0
C6       C     0.60011      0.85438      0.977        0
H2       H     0.5893       0.8391       0.9349       0
C7       C     0.60473      0.83969      0.0433       0
H3       H     0.5973       0.8145       0.0445       0
C8       C     0.61974      0.86043      0.1078       0
C7       C     0.63253      0.89828      0.1016       0
H3       H     0.6442       0.9138       0.143        0
C6       C     0.62805      0.91327      0.0337       0
H2       H     0.6367       0.9386       0.031        0
C9       C     0.62196      0.84353      0.1809       0
C10      C     0.62505      0.81164      0.1817       0
H4       H     0.6265       0.8013       0.1356       0
C7       C     0.641        0.7501       0.313        0
H3       H     0.649        0.7652       0.3563       0
C6       C     0.6424       0.7181       0.3104       0
H2       H     0.6532       0.7127       0.3513       0
C6       C     0.6154       0.7025       0.1863       0
H2       H     0.6075       0.6875       0.1429       0
C7       C     0.6145       0.7354       0.1908       0
H3       H     0.604        0.741        0.1496       0
C6       C     0.4614       0.783        0.7178       0
H2       H     0.4838       0.7871       0.6974       0
C7       C     0.431        0.748        0.717        0
H3       H     0.4326       0.7285       0.6947       0
C7       C     0.3943       0.7709       0.7758       0
H3       H     0.3716       0.7672       0.7934       0
C6       C     0.42481      0.80611      0.7762       0
H2       H     0.4224       0.8258       0.7946       0
Zn1      Zn    0.03008      0.6283       0.8406       0
O1       O     0.04798      0.55964      0.83828      0
O1       O     0.11167      0.70591      0.8435       0
O1       O     0.05909      0.67016      0.90642      0
O1       O     0.98495      0.62806      0.81365      0
O1       O     0.01754      0.58373      0.89842      0
C1       C     0.02742      0.55978      0.8905       0
C2       C     0.01313      0.52875      0.9476       0
C3       C     0.99113      0.52719      0.0073       0
H1       H     0.9845       0.5458       0.0124       0
C3       C     0.02266      0.50164      0.9411       0
H1       H     0.0377       0.5023       0.9011       0
C4       C     0.09158      0.697        0.9018       0
C5       C     0.10827      0.71963      0.9718       0
C6       C     0.14562      0.74573      0.977        0
H2       H     0.1609       0.7502       0.9349       0
C7       C     0.16031      0.76504      0.0433       0
H3       H     0.1855       0.7828       0.0445       0
C8       C     0.13957      0.75931      0.1078       0
C7       C     0.10172      0.73425      0.1016       0
H3       H     0.0862       0.7304       0.143        0
C6       C     0.08673      0.71478      0.0337       0
H2       H     0.0614       0.6981       0.031        0
C9       C     0.15647      0.77843      0.1809       0
C10      C     0.18836      0.81341      0.1817       0
H4       H     0.1987       0.8252       0.1356       0
C6       C     0.217        0.6784       0.7178       0
H2       H     0.2129       0.6967       0.6974       0
C7       C     0.252        0.683        0.717        0
H3       H     0.2715       0.7041       0.6947       0
C7       C     0.2291       0.6234       0.7758       0
H3       H     0.2328       0.6044       0.7934       0
C6       C     0.19389      0.6187       0.7762       0
H2       H     0.1742       0.5966       0.7946       0
Zn1      Zn    0.40887      0.47857      0.75         0
Zn1      Zn    0.3214       0.42688      0.75         0
O2       O     0.36837      0.42712      0.75         0
O1       O     0.33005      0.47651      0.75         0
O1       O     0.3918       0.51371      0.75         0
C4       C     0.3717       0.34263      0.75         0
C4       C     0.35873      0.50747      0.75         0
C5       C     0.35421      0.54155      0.75         0
C8       C     0.34434      0.60319      0.75         0
C9       C     0.33839      0.63596      0.75         0
C10      C     0.30294      0.63107      0.75         0
H4       H     0.2827       0.6071       0.75         0
Zn1      Zn    0.52143      0.9303       0.75         0
Zn1      Zn    0.57312      0.89452      0.75         0
O2       O     0.57288      0.94125      0.75         0
O1       O     0.52349      0.85354      0.75         0
O1       O     0.48629      0.87809      0.75         0
C4       C     0.65737      0.02907      0.75         0
C4       C     0.49253      0.85126      0.75         0
C5       C     0.45845      0.81266      0.75         0
C8       C     0.39681      0.74115      0.75         0
C9       C     0.36404      0.70243      0.75         0
C10      C     0.36893      0.67187      0.75         0
H4       H     0.3929       0.6756       0.75         0
Zn1      Zn    0.0697       0.59113      0.75         0
Zn1      Zn    0.10548      0.6786       0.75         0
O2       O     0.05875      0.63163      0.75         0
O1       O     0.14646      0.66995      0.75         0
O1       O     0.12191      0.6082       0.75         0
C4       C     0.97093      0.6283       0.75         0
C4       C     0.14874      0.64127      0.75         0
C5       C     0.18734      0.64579      0.75         0
C8       C     0.25885      0.65566      0.75         0
C9       C     0.29757      0.66161      0.75         0
C10      C     0.32813      0.69706      0.75         0
H4       H     0.3244       0.7173       0.75         0
Zn1      Zn    0.59113      0.52143      0.25         0
Zn1      Zn    0.6786       0.57312      0.25         0
O2       O     0.63163      0.57288      0.25         0
O1       O     0.66995      0.52349      0.25         0
O1       O     0.6082       0.48629      0.25         0
C4       C     0.6283       0.65737      0.25         0
C4       C     0.64127      0.49253      0.25         0
C5       C     0.64579      0.45845      0.25         0
C8       C     0.65566      0.39681      0.25         0
C9       C     0.66161      0.36404      0.25         0
C10      C     0.69706      0.36893      0.25         0
H4       H     0.7173       0.3929       0.25         0
Zn1      Zn    0.47857      0.0697       0.25         0
Zn1      Zn    0.42688      0.10548      0.25         0
O2       O     0.42712      0.05875      0.25         0
O1       O     0.47651      0.14646      0.25         0
O1       O     0.51371      0.12191      0.25         0
C4       C     0.34263      0.97093      0.25         0
C4       C     0.50747      0.14874      0.25         0
C5       C     0.54155      0.18734      0.25         0
C8       C     0.60319      0.25885      0.25         0
C9       C     0.63596      0.29757      0.25         0
C10      C     0.63107      0.32813      0.25         0
H4       H     0.6071       0.3244       0.25         0
Zn1      Zn    0.9303       0.40887      0.25         0
Zn1      Zn    0.89452      0.3214       0.25         0
O2       O     0.94125      0.36837      0.25         0
O1       O     0.85354      0.33005      0.25         0
O1       O     0.87809      0.3918       0.25         0
C4       C     0.02907      0.3717       0.25         0
C4       C     0.85126      0.35873      0.25         0
C5       C     0.81266      0.35421      0.25         0
C8       C     0.74115      0.34434      0.25         0
C9       C     0.70243      0.33839      0.25         0
C10      C     0.67187      0.30294      0.25         0
H4       H     0.6756       0.2827       0.25         0
C10      C     0.23818      0.3794       0.25         0
H4       H     0.2615       0.3813       0.25         0
C9       C     0.16897      0.3739       0.25         0
C8       C     0.13259      0.3726       0.25         0
C5       C     0.06457      0.37122      0.25         0
C10      C     0.6206       0.85878      0.25         0
H4       H     0.6187       0.8802       0.25         0
C9       C     0.6261       0.79507      0.25         0
C8       C     0.6274       0.75999      0.25         0
C5       C     0.62878      0.69335      0.25         0
C10      C     0.14122      0.76182      0.25         0
H4       H     0.1198       0.7385       0.25         0
C9       C     0.20493      0.83103      0.25         0
C8       C     0.24001      0.86741      0.25         0
C5       C     0.30665      0.93543      0.25         0
C10      C     0.76182      0.6206       0.75         0
H4       H     0.7385       0.6187       0.75         0
C9       C     0.83103      0.6261       0.75         0
C8       C     0.86741      0.6274       0.75         0
C5       C     0.93543      0.62878      0.75         0
C10      C     0.3794       0.14122      0.75         0
H4       H     0.3813       0.1198       0.75         0
C9       C     0.3739       0.20493      0.75         0
C8       C     0.3726       0.24001      0.75         0
C5       C     0.37122      0.30665      0.75         0
C10      C     0.85878      0.23818      0.75         0
H4       H     0.8802       0.2615       0.75         0
C9       C     0.79507      0.16897      0.75         0
C8       C     0.75999      0.13259      0.75         0
C5       C     0.69335      0.06457      0.75         0


