data_ZIF-12

_audit_creation_method RASPA-1.0
_audit_creation_date 2011-3-6
_audit_author_name 'David Dubbeldam'

_cell_length_a    28.7595
_cell_length_b    28.7595
_cell_length_c    28.7595
_cell_angle_alpha 90
_cell_angle_beta  90
_cell_angle_gamma 90
_cell_volume      23787.2

_citation_author_name        'K.S. Park, Z. Ni, A.P. Cote, J.Y. Choi, R.D. Huang, F.J. Uribe-Romo, H.K. Chae, M. Oâ€™Keeffe, and O.M. Yaghi'
_citation_title              'Exceptional chemical and thermal stability of zeolitic imidazolate frameworks'
_citation_journal_abbrev     'P. Natl. Acad. Sci. USA'
_citation_journal_volume     103
_citation_journal_number     27
_citation_page_first         10186
_citation_page_last          10191
_citation_year               2006
_citation_special_details    'ZIF-12 removed random disorder and optimized with UFF'

_symmetry_cell_setting          triclinic
_symmetry_space_group_name_Hall 'P 1'
_symmetry_space_group_name_H-M  'P 1'
_symmetry_Int_Tables_number     1

_symmetry_equiv_pos_as_xyz 'x,y,z'

loop_
_atom_site_label
_atom_site_type_symbol
_atom_site_fract_x
_atom_site_fract_y
_atom_site_fract_z
_atom_site_charge
Zn1      Zn     0.397653   0.101912   0.250364   0 
C1       C      0.404561   0.998497   0.253581   0 
H1       H      0.437878   0.998703   0.27093    0 
C2       C      0.342718   0.0213937  0.220566   0 
C3       C      0.306787   0.0465245  0.200011   0 
H3       H      0.307021   0.0841498  0.199579   0 
C4       C      0.270021   0.0212195  0.179934   0 
H4       H      0.241274   0.0395188  0.163984   0 
C5       C      0.391828   0.181273   0.181662   0 
H5       H      0.385582   0.207188   0.208059   0 
C6B      C      0.40497    0.116249   0.14941    0 
C7B      C      0.414318   0.0698653  0.138403   0 
H7B      H      0.416826   0.0431915  0.164401   0 
C8B      C      0.42123    0.0583251  0.0914911  0 
H8B      H      0.427041   0.0225689  0.0815831  0 
C9       C      0.317555   0.0976668  0.317064   0 
H9       H      0.294373   0.0692133  0.294022   0 
C10      C      0.352721   0.165307   0.316654   0 
C11      C      0.385633   0.203982   0.313021   0 
H11      H      0.413288   0.203688   0.287516   0 
C12B     C      0.380839   0.239689   0.342956   0 
H12B     H      0.404688   0.268729   0.340966   0 
C13B     C      0.474988   0.0835989  0.313334   0 
C14B     C      0.449071   0.0593869  0.346239   0 
H14B     H      0.411532   0.0579021  0.344401   0 
C16B     C      0.47356    0.0351583  0.380859   0 
H16B     H      0.454798   0.0152014  0.406408   0 
C15      C      0.499379   0.116512   0.252052   0 
H15      H      0.499683   0.130958   0.217346   0 
N1       N      0.381199   0.0378434  0.241273   0 
N2       N      0.396385   0.134969   0.191411   0 
N3       N      0.354086   0.125975   0.295259   0 
N4       N      0.459594   0.103618   0.274163   0 
Zn1      Zn     0.897566   0.397861   0.252561   0 
C1       C      0.000748   0.403956   0.254494   0 
H1       H      0.000513   0.437212   0.271958   0 
C2       C      0.977135   0.342254   0.22178    0 
C3       C      0.951499   0.306418   0.20169    0 
H3       H      0.913874   0.306652   0.202187   0 
C4       C      0.976298   0.269733   0.18085    0 
H4       H      0.957608   0.241054   0.165233   0 
C5       C      0.818732   0.391688   0.182924   0 
H5       H      0.792437   0.385485   0.208952   0 
C6B      C      0.884125   0.405144   0.151591   0 
C7B      C      0.930537   0.415142   0.141278   0 
H7B      H      0.956631   0.418821   0.167703   0 
C8B      C      0.94287    0.421404   0.0945004  0 
H8B      H      0.97872    0.427739   0.0852094  0 
C9       C      0.901844   0.318492   0.319926   0 
H9       H      0.931014   0.295554   0.297523   0 
C10      C      0.833707   0.352664   0.318315   0 
C11      C      0.794526   0.384857   0.313827   0 
H11      H      0.794911   0.41258    0.288401   0 
C12B     C      0.758233   0.379328   0.342927   0 
H12B     H      0.728812   0.402644   0.34032    0 
C13B     C      0.901583   0.476129   0.319692   0 
C14B     C      0.907602   0.45067    0.360458   0 
H14B     H      0.908458   0.413135   0.360284   0 
C16B     C      0.912162   0.475612   0.40229    0 
H16B     H      0.915958   0.457137   0.434793   0 
C15      C      0.892086   0.499647   0.250551   0 
H15      H      0.887927   0.499231   0.213256   0 
N1       N      0.961207   0.380671   0.242995   0 
N2       N      0.864836   0.396692   0.19337    0 
N3       N      0.873266   0.354335   0.297343   0 
N4       N      0.895918   0.460126   0.276196   0 
Zn1      Zn     0.603393   0.897392   0.251812   0 
C1       C      0.5963     0.000512   0.254655   0 
H1       H      0.563199   0.999778   0.272409   0 
C2       C      0.657966   0.977871   0.221184   0 
C3       C      0.693873   0.952834   0.200475   0 
H3       H      0.693888   0.915205   0.200313   0 
C4       C      0.730288   0.97824    0.179896   0 
H4       H      0.759011   0.96002    0.163812   0 
C5       C      0.609298   0.818177   0.182627   0 
H5       H      0.615977   0.792156   0.208819   0 
C6B      C      0.595222   0.883257   0.150916   0 
C7B      C      0.585118   0.929577   0.140324   0 
H7B      H      0.582259   0.955991   0.166549   0 
C8B      C      0.577817   0.941389   0.0935526  0 
H8B      H      0.571389   0.977136   0.0839776  0 
C9       C      0.683853   0.902017   0.317918   0 
H9       H      0.706832   0.930521   0.294741   0 
C10      C      0.64911    0.834153   0.317687   0 
C11      C      0.61633    0.79535    0.314253   0 
H11      H      0.588653   0.795443   0.28877    0 
C12B     C      0.621298   0.759775   0.344313   0 
H12B     H      0.597564   0.730632   0.342454   0 
C13A     C      0.525442   0.901094   0.319377   0 
C14A     C      0.551022   0.907224   0.360052   0 
H14A     H      0.588564   0.907983   0.359768   0 
C16A     C      0.526188   0.911968   0.401939   0 
H16A     H      0.544728   0.915778   0.434391   0 
C15      C      0.501685   0.891411   0.250333   0 
H15      H      0.501949   0.887191   0.213037   0 
N1       N      0.619807   0.961314   0.242377   0 
N2       N      0.604361   0.864381   0.192728   0 
N3       N      0.647492   0.873432   0.296213   0 
N4       N      0.541297   0.895292   0.275839   0 
Zn1      Zn     0.102934   0.601654   0.251475   0 
C1       C      0.999398   0.595798   0.254261   0 
H1       H      0.999112   0.562538   0.271727   0 
C2       C      0.0232292  0.657372   0.221393   0 
C3       C      0.0489355  0.69302    0.201049   0 
H3       H      0.0865593  0.692545   0.201242   0 
C4       C      0.0242141  0.729819   0.180321   0 
H4       H      0.0429668  0.758348   0.164507   0 
C5       C      0.181819   0.607631   0.182149   0 
H5       H      0.208061   0.613232   0.208362   0 
C6B      C      0.1164     0.59541    0.150346   0 
C7B      C      0.0698877  0.58629    0.139665   0 
H7B      H      0.0435574  0.582911   0.165895   0 
C8B      C      0.0577509  0.580581   0.0927526  0 
H8B      H      0.0218622  0.574994   0.0831689  0 
C9       C      0.0990665  0.680979   0.319011   0 
H9       H      0.0698968  0.703829   0.296526   0 
C10      C      0.16701    0.646458   0.317462   0 
C11      C      0.206118   0.614176   0.312969   0 
H11      H      0.205594   0.58634    0.287668   0 
C12B     C      0.242511   0.619737   0.341941   0 
H12B     H      0.271865   0.596337   0.339347   0 
C13A     C      0.0841842  0.52364    0.313721   0 
C14A     C      0.0600134  0.549168   0.346974   0 
H14A     H      0.058678   0.586739   0.345691   0 
C16A     C      0.0356586  0.524244   0.38122    0 
H16A     H      0.0157707  0.542646   0.407064   0 
C15      C      0.117082   0.499923   0.252154   0 
H15      H      0.13155    0.500007   0.217456   0 
N1       N      0.0390805  0.61881    0.242424   0 
N2       N      0.135605   0.603155   0.192305   0 
N3       N      0.127373   0.644782   0.29664    0 
N4       N      0.104264   0.539471   0.274739   0 
Zn1      Zn     0.397208   0.897611   0.749349   0 
C1       C      0.404301   0.000685   0.746603   0 
H1       H      0.437444   0.99999    0.728927   0 
C2       C      0.34256    0.977971   0.779898   0 
C3       C      0.30665    0.952882   0.800544   0 
H3       H      0.30661    0.915254   0.800576   0 
C4       C      0.270268   0.978236   0.821244   0 
H4       H      0.241539   0.959977   0.837273   0 
C5       C      0.391502   0.818819   0.818918   0 
H5       H      0.385259   0.792599   0.792821   0 
C6B      C      0.404897   0.884172   0.850363   0 
C7B      C      0.414857   0.930579   0.860734   0 
H7B      H      0.418236   0.956764   0.834356   0 
C8B      C      0.421475   0.942784   0.907497   0 
H8B      H      0.427841   0.978622   0.916839   0 
C9       C      0.316646   0.902027   0.683318   0 
H9       H      0.286073   0.905028   0.713926   0 
C10      C      0.351494   0.834215   0.683632   0 
C11      C      0.384317   0.795454   0.687125   0 
H11      H      0.411995   0.795617   0.712608   0 
C12B     C      0.379379   0.759822   0.657128   0 
H12B     H      0.403144   0.730708   0.659031   0 
C13B     C      0.47521    0.901171   0.681828   0 
C14B     C      0.449676   0.907392   0.64114    0 
H14B     H      0.412134   0.908262   0.641408   0 
C16B     C      0.474557   0.912047   0.599271   0 
H16B     H      0.456056   0.915914   0.566803   0 
C15      C      0.498875   0.891281   0.750868   0 
H15      H      0.498541   0.886969   0.788146   0 
N1       N      0.380731   0.961475   0.758669   0 
N2       N      0.396259   0.864974   0.808585   0 
N3       N      0.353065   0.873526   0.705049   0 
N4       N      0.459301   0.895377   0.725342   0 
Zn1      Zn     0.102983   0.397851   0.750245   0 
C1       C      0.999419   0.403738   0.747571   0 
H1       H      0.99915    0.436969   0.730051   0 
C2       C      0.0232253  0.342211   0.78053    0 
C3       C      0.0489129  0.306536   0.800842   0 
H3       H      0.0865372  0.307038   0.800723   0 
C4       C      0.024171   0.269665   0.821419   0 
H4       H      0.0429091  0.241114   0.837213   0 
C5       C      0.182365   0.391702   0.81908    0 
H5       H      0.208364   0.385501   0.792756   0 
C6B      C      0.117279   0.404866   0.85119    0 
C7B      C      0.0708791  0.414235   0.862121   0 
H7B      H      0.0442844  0.416968   0.836068   0 
C8B      C      0.0592105  0.42087    0.90904    0 
H8B      H      0.0234347  0.426605   0.918889   0 
C9       C      0.0988081  0.318575   0.682603   0 
H9       H      0.0950734  0.287935   0.713074   0 
C10      C      0.166733   0.353152   0.683921   0 
C11      C      0.20585    0.385435   0.688329   0 
H11      H      0.205411   0.413224   0.713684   0 
C12B     C      0.242145   0.379926   0.659226   0 
H12B     H      0.271507   0.403325   0.66176    0 
C13B     C      0.0841145  0.475798   0.68798    0 
C14B     C      0.0600228  0.45019    0.654735   0 
H14B     H      0.0587496  0.41262    0.656056   0 
C16B     C      0.0356573  0.475034   0.620442   0 
H16B     H      0.0158309  0.456576   0.594603   0 
C15      C      0.11692    0.499644   0.749547   0 
H15      H      0.131332   0.499642   0.784271   0 
N1       N      0.0391023  0.380775   0.759533   0 
N2       N      0.136095   0.396379   0.809204   0 
N3       N      0.127186   0.354761   0.704915   0 
N4       N      0.104206   0.460043   0.726987   0 
Zn1      Zn     0.602941   0.101522   0.750931   0 
C1       C      0.596067   0.998133   0.747534   0 
H1       H      0.562718   0.998327   0.730243   0 
C2       C      0.657953   0.0210457  0.780471   0 
C3       C      0.693854   0.0461897  0.80107    0 
H3       H      0.693629   0.0838147  0.801469   0 
C4       C      0.730571   0.0208994  0.821253   0 
H4       H      0.759295   0.0392099  0.837232   0 
C5       C      0.608641   0.18041    0.820047   0 
H5       H      0.614281   0.206539   0.793731   0 
C6B      C      0.596469   0.115078   0.852056   0 
C7B      C      0.58739    0.0685874  0.862855   0 
H7B      H      0.58427    0.0421471  0.836698   0 
C8B      C      0.581386   0.0566241  0.909776   0 
H8B      H      0.575739   0.0207626  0.919455   0 
C9       C      0.682949   0.0974156  0.684259   0 
H9       H      0.713553   0.0943453  0.714824   0 
C10      C      0.647943   0.165135   0.684845   0 
C11      C      0.615096   0.203857   0.688547   0 
H11      H      0.587435   0.203559   0.714044   0 
C12B     C      0.619949   0.239609   0.658675   0 
H12B     H      0.596142   0.26868    0.66071    0 
C13B     C      0.52551    0.0834807  0.688022   0 
C14B     C      0.551325   0.0592336  0.655064   0 
H14B     H      0.588862   0.0576386  0.656863   0 
C16B     C      0.526729   0.0351259  0.620439   0 
H16B     H      0.545398   0.015146   0.594842   0 
C15      C      0.501285   0.116418   0.749354   0 
H15      H      0.501081   0.130876   0.784053   0 
N1       N      0.619458   0.0374749  0.759762   0 
N2       N      0.604309   0.134152   0.810065   0 
N3       N      0.646494   0.125749   0.706139   0 
N4       N      0.541      0.103406   0.727198   0 
Zn1      Zn     0.897168   0.601668   0.7492     0 
C1       C      0.000408   0.595559   0.747221   0 
H1       H      0.00015    0.562344   0.729676   0 
C2       C      0.976839   0.657204   0.780061   0 
C3       C      0.951235   0.693047   0.800177   0 
H3       H      0.91361    0.692795   0.799765   0 
C4       C      0.976068   0.729764   0.82092    0 
H4       H      0.957403   0.758445   0.836562   0 
C5       C      0.818002   0.608033   0.818538   0 
H5       H      0.791882   0.614708   0.792448   0 
C6B      C      0.883148   0.593839   0.850061   0 
C7B      C      0.929481   0.583674   0.860543   0 
H7B      H      0.955778   0.580516   0.83424    0 
C8B      C      0.941464   0.576706   0.90732    0 
H8B      H      0.97723    0.570299   0.916806   0 
C9       C      0.901466   0.681037   0.681772   0 
H9       H      0.905349   0.711885   0.712016   0 
C10      C      0.833346   0.646837   0.683391   0 
C11      C      0.79418    0.614626   0.687879   0 
H11      H      0.794593   0.586879   0.71328    0 
C12B     C      0.757868   0.620158   0.658803   0 
H12B     H      0.728458   0.596828   0.661413   0 
C13A     C      0.901259   0.523428   0.682038   0 
C14A     C      0.907192   0.54893    0.641285   0 
H14A     H      0.907969   0.586464   0.641483   0 
C16A     C      0.911787   0.524032   0.59943    0 
H16A     H      0.915507   0.54254    0.566938   0 
C15      C      0.891951   0.499823   0.75118    0 
H15      H      0.887891   0.500169   0.788493   0 
N1       N      0.960868   0.618799   0.758866   0 
N2       N      0.864141   0.602833   0.808271   0 
N3       N      0.872914   0.645171   0.704349   0 
N4       N      0.895616   0.539383   0.725559   0 
Zn1      Zn     0.25177    0.398067   0.104346   0 
C1       C      0.254112   0.40404    0.001019   0 
H1       H      0.27161    0.437279   0.000785   0 
C2       C      0.220399   0.34291    0.024816   0 
C3       C      0.199635   0.3075     0.0504913  0 
H3       H      0.199028   0.308414   0.0881047  0 
C4       C      0.179587   0.270338   0.0257445  0 
H4       H      0.163398   0.242002   0.0444701  0 
C5       C      0.181915   0.384338   0.182236   0 
H5       H      0.206029   0.368486   0.206318   0 
C6B      C      0.155463   0.4184     0.12235    0 
C7B      C      0.149454   0.441635   0.080224   0 
H7B      H      0.176646   0.443071   0.0543943  0 
C8B      C      0.106946   0.464486   0.0727143  0 
H8B      H      0.101134   0.482935   0.0405127  0 
C9       C      0.318939   0.318678   0.098963   0 
H9       H      0.296261   0.296486   0.069431   0 
C10      C      0.31753    0.352039   0.167493   0 
C11      C      0.312417   0.383119   0.207471   0 
H11      H      0.286368   0.410287   0.207795   0 
C12B     C      0.341447   0.377006   0.243725   0 
H12B     H      0.338439   0.399502   0.273734   0 
C13B     C      0.313527   0.476233   0.0849673  0 
C14B     C      0.347005   0.450555   0.0612825  0 
H14B     H      0.345966   0.412966   0.0605247  0 
C16B     C      0.381152   0.475313   0.0366516  0 
H16B     H      0.407192   0.456756   0.0171275  0 
C15      C      0.251676   0.500026   0.117317   0 
H15      H      0.216954   0.50011    0.131727   0 
N1       N      0.241241   0.381499   0.0406698  0 
N2       N      0.193915   0.397192   0.138088   0 
N3       N      0.296883   0.354589   0.127849   0 
N4       N      0.274685   0.460415   0.105273   0 
Zn1      Zn     0.602363   0.251696   0.105031   0 
C1       C      0.59643    0.253067   0.002175   0 
H1       H      0.563152   0.270501   0.002322   0 
C2       C      0.657773   0.21979    0.0260058  0 
C3       C      0.693287   0.199315   0.0517674  0 
H3       H      0.692505   0.199088   0.0893882  0 
C4       C      0.730373   0.179043   0.0270928  0 
H4       H      0.758795   0.163076   0.0458791  0 
C5       C      0.615042   0.182108   0.183266   0 
H5       H      0.630153   0.206542   0.207493   0 
C6B      C      0.582882   0.154738   0.122728   0 
C7B      C      0.561054   0.147874   0.0799546  0 
H7B      H      0.560189   0.174612   0.053664   0 
C8B      C      0.538377   0.105265   0.0725019  0 
H8B      H      0.52061    0.0990175  0.0399936  0 
C9       C      0.682189   0.318574   0.0995647  0 
H9       H      0.704733   0.295707   0.0704502  0 
C10      C      0.648403   0.317703   0.1679     0 
C11      C      0.616805   0.313156   0.207539   0 
H11      H      0.589624   0.287121   0.207868   0 
C12B     C      0.622429   0.342701   0.243451   0 
H12B     H      0.599533   0.340117   0.273194   0 
C13B     C      0.523985   0.318546   0.099822   0 
C14B     C      0.549642   0.359227   0.0940461  0 
H14B     H      0.587183   0.358979   0.0938356  0 
C16B     C      0.524886   0.401097   0.0888729  0 
H16B     H      0.54351    0.433537   0.0852435  0 
C15      C      0.500027   0.249507   0.109182   0 
H15      H      0.499669   0.21223    0.113487   0 
N1       N      0.619205   0.240729   0.0417589  0 
N2       N      0.603129   0.193654   0.138728   0 
N3       N      0.646236   0.296584   0.128476   0 
N4       N      0.539792   0.275035   0.105973   0 
Zn1      Zn     0.748928   0.601581   0.104409   0 
C1       C      0.746815   0.595569   0.0010036  0 
H1       H      0.729241   0.562369   0.0007566  0 
C2       C      0.780478   0.656704   0.0248366  0 
C3       C      0.801129   0.692166   0.050531   0 
H3       H      0.801614   0.691303   0.0881475  0 
C4       C      0.821207   0.729322   0.0258007  0 
H4       H      0.837306   0.757699   0.0445424  0 
C5       C      0.818638   0.615028   0.182554   0 
H5       H      0.794353   0.630235   0.206873   0 
C6B      C      0.845428   0.58214    0.122175   0 
C7B      C      0.851483   0.559142   0.0799238  0 
H7B      H      0.824049   0.557131   0.0544016  0 
C8B      C      0.894282   0.537028   0.0719783  0 
H8B      H      0.900005   0.518485   0.0398208  0 
C9       C      0.681776   0.681048   0.0991053  0 
H9       H      0.704479   0.70328    0.0696179  0 
C10      C      0.683161   0.647505   0.167552   0 
C11      C      0.688302   0.616368   0.207484   0 
H11      H      0.714299   0.58915    0.207723   0 
C12B     C      0.659368   0.622496   0.243812   0 
H12B     H      0.662419   0.599976   0.2738     0 
C13B     C      0.68726    0.523343   0.0850586  0 
C14B     C      0.653778   0.548953   0.0612964  0 
H14B     H      0.654792   0.586543   0.0604702  0 
C16B     C      0.619661   0.524126   0.0366869  0 
H16B     H      0.593612   0.542637   0.0171087  0 
C15      C      0.749119   0.499664   0.117488   0 
H15      H      0.783854   0.499652   0.131873   0 
N1       N      0.759561   0.618147   0.040682   0 
N2       N      0.806718   0.602559   0.138272   0 
N3       N      0.703786   0.645026   0.127893   0 
N4       N      0.726078   0.539227   0.105357   0 
Zn1      Zn     0.398437   0.74793    0.104567   0 
C1       C      0.404306   0.746733   0.001587   0 
H1       H      0.437551   0.729241   0.001692   0 
C2       C      0.343017   0.780014   0.0255071  0 
C3       C      0.307498   0.800421   0.0513176  0 
H3       H      0.308277   0.80055    0.0889389  0 
C4       C      0.270403   0.82074    0.0266939  0 
H4       H      0.241979   0.836653   0.0455214  0 
C5       C      0.386035   0.817391   0.182983   0 
H5       H      0.371425   0.792838   0.207392   0 
C6B      C      0.417243   0.844984   0.122058   0 
C7B      C      0.438942   0.85181    0.0792119  0 
H7B      H      0.440329   0.824829   0.0532022  0 
C8B      C      0.461023   0.894647   0.0713922  0 
H8B      H      0.478947   0.900761   0.0389582  0 
C9       C      0.31864    0.681049   0.0991623  0 
H9       H      0.288186   0.711693   0.0953485  0 
C10      C      0.352455   0.681912   0.167478   0 
C11      C      0.38409    0.686429   0.207093   0 
H11      H      0.411315   0.712417   0.207388   0 
C12B     C      0.378458   0.656901   0.243017   0 
H12B     H      0.401381   0.659465   0.272741   0 
C13B     C      0.476895   0.681195   0.0996697  0 
C14B     C      0.451306   0.640492   0.0937431  0 
H14B     H      0.413766   0.640718   0.0932664  0 
C16B     C      0.476124   0.598642   0.0887267  0 
H16B     H      0.457546   0.56619    0.0849534  0 
C15      C      0.500723   0.75028    0.109075   0 
H15      H      0.50099    0.787576   0.113286   0 
N1       N      0.381558   0.758985   0.0412218  0 
N2       N      0.397607   0.805894   0.138346   0 
N3       N      0.354624   0.703011   0.128043   0 
N4       N      0.461013   0.724697   0.105644   0 
Zn1      Zn     0.25204    0.602097   0.8968     0 
C1       C      0.253817   0.595894   0.999663   0 
H1       H      0.271288   0.562635   0.999381   0 
C2       C      0.220407   0.657264   0.976091   0 
C3       C      0.199816   0.692824   0.950483   0 
H3       H      0.199469   0.692134   0.912862   0 
C4       C      0.179591   0.729831   0.975313   0 
H4       H      0.16354    0.758285   0.956648   0 
C5       C      0.182021   0.615099   0.81895    0 
H5       H      0.206321   0.630296   0.794641   0 
C6B      C      0.155      0.582619   0.879465   0 
C7B      C      0.148385   0.560569   0.922159   0 
H7B      H      0.17527    0.559583   0.948298   0 
C8B      C      0.105824   0.537849   0.929728   0 
H8B      H      0.0997483  0.519939   0.962184   0 
C9       C      0.318943   0.681888   0.902282   0 
H9       H      0.288342   0.71233    0.906535   0 
C10      C      0.317583   0.64853    0.833746   0 
C11      C      0.312647   0.617283   0.793874   0 
H11      H      0.286611   0.590104   0.793558   0 
C12B     C      0.341804   0.62326    0.757703   0 
H12B     H      0.338885   0.600669   0.727756   0 
C13A     C      0.319061   0.523808   0.901608   0 
C14A     C      0.359707   0.549517   0.907404   0 
H14A     H      0.359395   0.587057   0.907698   0 
C16A     C      0.401626   0.524815   0.912467   0 
H16A     H      0.434042   0.543477   0.916086   0 
C15      C      0.250059   0.499746   0.892247   0 
H15      H      0.212775   0.499332   0.887991   0 
N1       N      0.24132    0.61875    0.960174   0 
N2       N      0.193828   0.602945   0.863357   0 
N3       N      0.29676    0.646102   0.87331    0 
N4       N      0.275507   0.539554   0.895565   0 
Zn1      Zn     0.398924   0.251482   0.896661   0 
C1       C      0.404621   0.253591   0.999995   0 
H1       H      0.437837   0.271132   0.000348   0 
C2       C      0.343575   0.219887   0.975966   0 
C3       C      0.308241   0.199164   0.950153   0 
H3       H      0.309243   0.198654   0.912541   0 
C4       C      0.271033   0.179031   0.97476    0 
H4       H      0.24275    0.162874   0.955925   0 
C5       C      0.385456   0.181925   0.818484   0 
H5       H      0.369717   0.206147   0.794438   0 
C6B      C      0.419192   0.155207   0.878445   0 
C7B      C      0.442246   0.149025   0.920651   0 
H7B      H      0.443586   0.176119   0.946587   0 
C8B      C      0.465072   0.106489   0.928095   0 
H8B      H      0.483413   0.100566   0.960345   0 
C9       C      0.319467   0.318581   0.90197    0 
H9       H      0.2971     0.295698   0.931211   0 
C10      C      0.353244   0.317614   0.833636   0 
C11      C      0.384641   0.312846   0.793866   0 
H11      H      0.411839   0.286826   0.793553   0 
C12B     C      0.378811   0.342183   0.757814   0 
H12B     H      0.401583   0.339478   0.727988   0 
C13B     C      0.477238   0.312998   0.916344   0 
C14B     C      0.451625   0.346644   0.939867   0 
H14B     H      0.414025   0.345821   0.940424   0 
C16B     C      0.476452   0.380695   0.964571   0 
H16B     H      0.457953   0.406891   0.983941   0 
C15      C      0.500871   0.251013   0.884122   0 
H15      H      0.500855   0.216297   0.869703   0 
N1       N      0.382184   0.2408     0.960259   0 
N2       N      0.398083   0.193732   0.86275    0 
N3       N      0.355571   0.296729   0.873169   0 
N4       N      0.461321   0.274228   0.895974   0 
Zn1      Zn     0.748566   0.397512   0.897073   0 
C1       C      0.747078   0.403745   0.0        0 
H1       H      0.729542   0.436968   0.999778   0 
C2       C      0.780481   0.342403   0.976418   0 
C3       C      0.800986   0.306812   0.950785   0 
H3       H      0.801215   0.307459   0.913162   0 
C4       C      0.821268   0.269819   0.975592   0 
H4       H      0.837254   0.241341   0.956906   0 
C5       C      0.818336   0.384645   0.818894   0 
H5       H      0.793859   0.369985   0.794436   0 
C6B      C      0.845711   0.416179   0.87974    0 
C7B      C      0.852373   0.438145   0.922472   0 
H7B      H      0.825277   0.439731   0.948352   0 
C8B      C      0.895198   0.460229   0.930331   0 
H8B      H      0.901194   0.478345   0.96268    0 
C9       C      0.681676   0.31775    0.902694   0 
H9       H      0.712344   0.287385   0.906984   0 
C10      C      0.682949   0.351027   0.83412    0 
C11      C      0.687821   0.382232   0.794208   0 
H11      H      0.713797   0.409467   0.793856   0 
C12B     C      0.658666   0.376161   0.758051   0 
H12B     H      0.661549   0.398714   0.72807    0 
C13A     C      0.681647   0.475877   0.901791   0 
C14A     C      0.640972   0.450225   0.907643   0 
H14A     H      0.641241   0.412684   0.908018   0 
C16A     C      0.599084   0.474983   0.91269    0 
H16A     H      0.566651   0.456363   0.916379   0 
C15      C      0.750696   0.499832   0.892468   0 
H15      H      0.787996   0.500165   0.888283   0 
N1       N      0.759469   0.380875   0.960513   0 
N2       N      0.806648   0.396534   0.863406   0 
N3       N      0.703779   0.353538   0.873677   0 
N4       N      0.725186   0.460068   0.895817   0 
Zn1      Zn     0.601766   0.748073   0.896989   0 
C1       C      0.596095   0.746252   0.0004355  0 
H1       H      0.562923   0.728625   0.0008478  0 
C2       C      0.657119   0.779887   0.976279   0 
C3       C      0.692479   0.800473   0.950391   0 
H3       H      0.691486   0.800832   0.912777   0 
C4       C      0.729713   0.82065    0.974924   0 
H4       H      0.758018   0.836697   0.956029   0 
C5       C      0.614751   0.817408   0.818549   0 
H5       H      0.629878   0.793018   0.794288   0 
C6B      C      0.582233   0.844485   0.879011   0 
C7B      C      0.559517   0.850747   0.921388   0 
H7B      H      0.557718   0.823459   0.947079   0 
C8B      C      0.537405   0.893566   0.929255   0 
H8B      H      0.519064   0.89944    0.961502   0 
C9       C      0.681344   0.681035   0.902188   0 
H9       H      0.703808   0.703985   0.931305   0 
C10      C      0.647286   0.681873   0.833987   0 
C11      C      0.61572    0.686553   0.794338   0 
H11      H      0.588476   0.712524   0.794113   0 
C12B     C      0.621449   0.657192   0.758289   0 
H12B     H      0.598557   0.659842   0.728549   0 
C13B     C      0.523354   0.686661   0.916471   0 
C14B     C      0.548851   0.653053   0.940177   0 
H14B     H      0.586449   0.653898   0.940946   0 
C16B     C      0.523904   0.619014   0.964773   0 
H16B     H      0.542311   0.592837   0.984279   0 
C15      C      0.499892   0.748611   0.884046   0 
H15      H      0.500005   0.783336   0.869641   0 
N1       N      0.618526   0.758882   0.960637   0 
N2       N      0.60263    0.80573    0.862984   0 
N3       N      0.645095   0.702805   0.873503   0 
N4       N      0.53937    0.725412   0.896166   0 
Zn1      Zn     0.103308   0.251072   0.398618   0 
C1       C      0.0        0.253366   0.405073   0 
H1       H      0.0004865  0.271027   0.438228   0 
C2       C      0.0233691  0.220311   0.343427   0 
C3       C      0.0488009  0.200071   0.307533   0 
H3       H      0.0864279  0.200408   0.307646   0 
C4       C      0.0237922  0.179302   0.27095    0 
H4       H      0.0423209  0.163559   0.242236   0 
C5       C      0.182288   0.181472   0.39179    0 
H5       H      0.208476   0.207491   0.38509    0 
C6B      C      0.117136   0.1501     0.40626    0 
C7B      C      0.0708465  0.139729   0.416726   0 
H7B      H      0.0446618  0.166121   0.420154   0 
C8B      C      0.0587786  0.0929645  0.423671   0 
H8B      H      0.0230377  0.0835678  0.430331   0 
C9       C      0.0988036  0.318541   0.319337   0 
H9       H      0.0944529  0.288274   0.288572   0 
C10      C      0.167179   0.316541   0.353001   0 
C11      C      0.206635   0.31176    0.384815   0 
H11      H      0.206268   0.286442   0.412637   0 
C12B     C      0.243174   0.340458   0.378814   0 
H12B     H      0.272816   0.337599   0.40182    0 
C13B     C      0.0989781  0.318387   0.476703   0 
C14B     C      0.0927692  0.35905    0.451124   0 
H14B     H      0.0921109  0.358788   0.413587   0 
C16B     C      0.0877794  0.400907   0.475952   0 
H16B     H      0.0838614  0.433342   0.457394   0 
C15      C      0.108807   0.249369   0.500453   0 
H15      H      0.113129   0.212086   0.500187   0 
N1       N      0.0395221  0.241547   0.381731   0 
N2       N      0.136213   0.191876   0.397324   0 
N3       N      0.1275     0.295823   0.354996   0 
N4       N      0.105001   0.274876   0.460839   0 
Zn1      Zn     0.102704   0.748378   0.602803   0 
C1       C      0.999521   0.745998   0.596465   0 
H1       H      0.999871   0.728433   0.56326    0 
C2       C      0.0228951  0.778917   0.658152   0 
C3       C      0.0483896  0.799144   0.694013   0 
H3       H      0.0860155  0.798754   0.693868   0 
C4       C      0.0234456  0.819982   0.7306     0 
H4       H      0.0420235  0.835709   0.759291   0 
C5       C      0.181189   0.818383   0.609198   0 
H5       H      0.207588   0.792465   0.615417   0 
C6B      C      0.115718   0.849486   0.595605   0 
C7B      C      0.0693114  0.859639   0.585426   0 
H7B      H      0.0433334  0.833108   0.581627   0 
C8B      C      0.0568431  0.906383   0.579118   0 
H8B      H      0.0209948  0.91555    0.572617   0 
C9       C      0.0984224  0.680929   0.682072   0 
H9       H      0.0940567  0.711143   0.712883   0 
C10      C      0.166773   0.683048   0.648362   0 
C11      C      0.206204   0.687908   0.616528   0 
H11      H      0.20579    0.713253   0.588733   0 
C12B     C      0.242785   0.659253   0.622484   0 
H12B     H      0.272408   0.662168   0.59946    0 
C13B     C      0.0986574  0.681117   0.524682   0 
C14B     C      0.0922308  0.640454   0.550205   0 
H14B     H      0.091296   0.640717   0.587739   0 
C16B     C      0.0874025  0.59861    0.525326   0 
H16B     H      0.0833111  0.566172   0.543842   0 
C15      C      0.108836   0.750121   0.501048   0 
H15      H      0.113272   0.787383   0.501394   0 
N1       N      0.0389749  0.757689   0.619805   0 
N2       N      0.135146   0.807756   0.604028   0 
N3       N      0.127072   0.703729   0.646424   0 
N4       N      0.104624   0.724604   0.540608   0 
Zn1      Zn     0.252565   0.104227   0.601743   0 
C1       C      0.253199   0.001168   0.596446   0 
H1       H      0.270544   0.000963   0.563126   0 
C2       C      0.220419   0.0256871  0.657762   0 
C3       C      0.200489   0.0518666  0.69328    0 
H3       H      0.200841   0.0894837  0.692388   0 
C4       C      0.180006   0.0276191  0.730532   0 
H4       H      0.164444   0.0467357  0.758958   0 
C5       C      0.18265    0.182269   0.61506    0 
H5       H      0.207061   0.206822   0.629664   0 
C6B      C      0.155396   0.121357   0.583538   0 
C7B      C      0.148786   0.0785999  0.561602   0 
H7B      H      0.176007   0.0528702  0.559771   0 
C8B      C      0.105831   0.0705107  0.539863   0 
H8B      H      0.0998585  0.0381108  0.521822   0 
C9       C      0.320758   0.0989334  0.68033    0 
H9       H      0.290486   0.093705   0.710961   0 
C10      C      0.318036   0.167782   0.647708   0 
C11      C      0.312038   0.208056   0.617174   0 
H11      H      0.286126   0.208108   0.589878   0 
C12B     C      0.340155   0.244922   0.623898   0 
H12B     H      0.336489   0.275157   0.601809   0 
C13B     C      0.319095   0.0989536  0.523153   0 
C14B     C      0.359818   0.0931384  0.548736   0 
H14B     H      0.359625   0.0927663  0.586268   0 
C16B     C      0.40166    0.0880711  0.523923   0 
H16B     H      0.434117   0.084352   0.542514   0 
C15      C      0.249995   0.108212   0.499339   0 
H15      H      0.212695   0.112401   0.499079   0 
N1       N      0.241439   0.0410194  0.619064   0 
N2       N      0.194513   0.137876   0.602918   0 
N3       N      0.297753   0.127935   0.645102   0 
N4       N      0.275594   0.104964   0.539048   0 
Zn1      Zn     0.897722   0.249822   0.603099   0 
C1       C      0.001223   0.252822   0.596874   0 
H1       H      0.001307   0.270325   0.563633   0 
C2       C      0.977761   0.219807   0.658504   0 
C3       C      0.952277   0.199449   0.694297   0 
H3       H      0.914651   0.199445   0.693939   0 
C4       C      0.97723    0.178995   0.731096   0 
H4       H      0.958655   0.163166   0.759732   0 
C5       C      0.818576   0.180655   0.609608   0 
H5       H      0.792477   0.206877   0.61583    0 
C6B      C      0.883717   0.148758   0.596222   0 
C7B      C      0.9301     0.13798    0.586604   0 
H7B      H      0.956574   0.164141   0.583667   0 
C8B      C      0.941895   0.0910894  0.579955   0 
H8B      H      0.977666   0.0813616  0.574      0 
C9       C      0.901986   0.317652   0.68218    0 
H9       H      0.906205   0.287259   0.712834   0 
C10      C      0.833809   0.315783   0.648127   0 
C11      C      0.794434   0.310984   0.616213   0 
H11      H      0.794874   0.285661   0.588398   0 
C12B     C      0.75788    0.339691   0.622097   0 
H12B     H      0.728308   0.336833   0.599001   0 
C13A     C      0.916343   0.312396   0.525355   0 
C14A     C      0.940259   0.345676   0.551079   0 
H14A     H      0.941571   0.344213   0.58864    0 
C16A     C      0.964358   0.380244   0.526359   0 
H16A     H      0.984007   0.406143   0.544922   0 
C15      C      0.883742   0.250813   0.501297   0 
H15      H      0.869409   0.216058   0.50118    0 
N1       N      0.961669   0.240722   0.619987   0 
N2       N      0.864784   0.19071    0.604659   0 
N3       N      0.873492   0.295062   0.646261   0 
N4       N      0.896389   0.273258   0.540976   0 
Zn1      Zn     0.747909   0.895355   0.601639   0 
C1       C      0.746163   0.998805   0.596695   0 
H1       H      0.72849    0.999522   0.563551   0 
C2       C      0.779795   0.974073   0.657497   0 
C3       C      0.80032    0.947828   0.692629   0 
H3       H      0.800363   0.910219   0.69144    0 
C4       C      0.820893   0.971996   0.729883   0 
H4       H      0.836927   0.952822   0.758006   0 
C5       C      0.817995   0.817575   0.615552   0 
H5       H      0.793954   0.79335    0.631292   0 
C6B      C      0.844301   0.877628   0.581665   0 
C7B      C      0.850217   0.919817   0.558511   0 
H7B      H      0.822894   0.945497   0.556939   0 
C8B      C      0.892793   0.927578   0.535873   0 
H8B      H      0.898519   0.959839   0.517493   0 
C9       C      0.679862   0.900452   0.680254   0 
H9       H      0.710526   0.905722   0.710483   0 
C10      C      0.682383   0.831675   0.64748    0 
C11      C      0.688406   0.791331   0.617046   0 
H11      H      0.714279   0.791251   0.589709   0 
C12B     C      0.660367   0.754433   0.623932   0 
H12B     H      0.664003   0.724164   0.601887   0 
C13B     C      0.686777   0.915405   0.522944   0 
C14B     C      0.652964   0.938967   0.548317   0 
H14B     H      0.653466   0.939458   0.585925   0 
C16B     C      0.619141   0.963756   0.523231   0 
H16B     H      0.592776   0.983094   0.541505   0 
C15      C      0.748838   0.883044   0.499685   0 
H15      H      0.783521   0.868548   0.499902   0 
N1       N      0.758643   0.958813   0.618839   0 
N2       N      0.805807   0.861653   0.602631   0 
N3       N      0.702488   0.871589   0.644672   0 
N4       N      0.725418   0.894944   0.539104   0 
Zn1      Zn     0.898201   0.749468   0.398528   0 
C1       C      0.001709   0.746423   0.404646   0 
H1       H      0.001866   0.728971   0.437915   0 
C2       C      0.97811    0.779306   0.342991   0 
C3       C      0.952539   0.799662   0.307253   0 
H3       H      0.914914   0.799558   0.307637   0 
C4       C      0.977401   0.820277   0.270484   0 
H4       H      0.958757   0.836098   0.241888   0 
C5       C      0.819586   0.819054   0.392409   0 
H5       H      0.793269   0.792928   0.386754   0 
C6B      C      0.885056   0.850691   0.404776   0 
C7B      C      0.931563   0.861258   0.41405    0 
H7B      H      0.957818   0.834953   0.417487   0 
C8B      C      0.943785   0.908143   0.419858   0 
H8B      H      0.97967    0.91764    0.425593   0 
C9       C      0.902128   0.681764   0.319366   0 
H9       H      0.931606   0.70401    0.296678   0 
C10      C      0.833971   0.683803   0.353437   0 
C11      C      0.794667   0.688606   0.385436   0 
H11      H      0.795197   0.713885   0.413288   0 
C12B     C      0.758074   0.659939   0.379602   0 
H12B     H      0.728562   0.66279    0.402774   0 
C13B     C      0.916498   0.686935   0.47638    0 
C14B     C      0.940593   0.653677   0.450796   0 
H14B     H      0.94212    0.655145   0.413241   0 
C16B     C      0.964569   0.619127   0.475656   0 
H16B     H      0.98435    0.593234   0.457208   0 
C15      C      0.883684   0.748484   0.500232   0 
H15      H      0.869287   0.783209   0.500236   0 
N1       N      0.962113   0.758349   0.381534   0 
N2       N      0.865755   0.80877    0.397011   0 
N3       N      0.87372    0.704401   0.355316   0 
N4       N      0.896628   0.726058   0.46064    0 
Zn1      Zn     0.252651   0.8956     0.399685   0 
C1       C      0.254205   0.99913    0.404708   0 
H1       H      0.271948   0.999844   0.437815   0 
C2       C      0.220622   0.974395   0.343888   0 
C3       C      0.200217   0.948152   0.308686   0 
H3       H      0.200274   0.91054    0.309816   0 
C4       C      0.179652   0.972322   0.271429   0 
H4       H      0.163714   0.953147   0.24325    0 
C5       C      0.182777   0.817526   0.385956   0 
H5       H      0.207007   0.793098   0.370841   0 
C6B      C      0.156089   0.878018   0.418726   0 
C7B      C      0.150093   0.920309   0.441676   0 
H7B      H      0.177623   0.945715   0.443821   0 
C8B      C      0.107233   0.928441   0.463604   0 
H8B      H      0.101563   0.960643   0.482095   0 
C9       C      0.320769   0.900804   0.321128   0 
H9       H      0.298618   0.930953   0.29921    0 
C10      C      0.318331   0.832048   0.353964   0 
C11      C      0.312297   0.791689   0.384377   0 
H11      H      0.286437   0.791609   0.411725   0 
C12B     C      0.340304   0.754774   0.377456   0 
H12B     H      0.336638   0.724484   0.39947    0 
C13B     C      0.313653   0.915505   0.478468   0 
C14B     C      0.347502   0.9391     0.453173   0 
H14B     H      0.347024   0.939685   0.415566   0 
C16B     C      0.381335   0.96379    0.478341   0 
H16B     H      0.407738   0.983147   0.460135   0 
C15      C      0.251545   0.883133   0.501598   0 
H15      H      0.216834   0.8687     0.501302   0 
N1       N      0.241822   0.959123   0.38252    0 
N2       N      0.194843   0.861742   0.398519   0 
N3       N      0.298173   0.871938   0.356727   0 
N4       N      0.275013   0.895112   0.462235   0 
Zn1      Zn     0.748143   0.104279   0.39972    0 
C1       C      0.747182   0.001333   0.404932   0 
H1       H      0.729898   0.0011455  0.438285   0 
C2       C      0.780026   0.0258147  0.343622   0 
C3       C      0.800088   0.0519772  0.308165   0 
H3       H      0.799895   0.0895936  0.309128   0 
C4       C      0.820513   0.0277116  0.270894   0 
H4       H      0.83618    0.0468131  0.242515   0 
C5       C      0.818237   0.182067   0.386338   0 
H5       H      0.793975   0.206461   0.371218   0 
C6B      C      0.8452     0.121488   0.418753   0 
C7B      C      0.851793   0.0787656  0.440759   0 
H7B      H      0.824803   0.0527466  0.441956   0 
C8B      C      0.894477   0.0710118  0.46318    0 
H8B      H      0.900541   0.0385161  0.481029   0 
C9       C      0.679913   0.0989428  0.321211   0 
H9       H      0.70179    0.0687759  0.299045   0 
C10      C      0.682677   0.167839   0.35374    0 
C11      C      0.688721   0.208152   0.384212   0 
H11      H      0.714716   0.208263   0.41143    0 
C12B     C      0.660556   0.244987   0.377514   0 
H12B     H      0.664244   0.275247   0.399563   0 
C13B     C      0.681498   0.0988472  0.478212   0 
C14B     C      0.640807   0.0930625  0.45257    0 
H14B     H      0.64104    0.0927811  0.415038   0 
C16B     C      0.598939   0.0879232  0.477324   0 
H16B     H      0.566507   0.0842292  0.458686   0 
C15      C      0.750548   0.108173   0.502137   0 
H15      H      0.787829   0.112454   0.502479   0 
N1       N      0.759107   0.0411524  0.382366   0 
N2       N      0.806301   0.137756   0.398691   0 
N3       N      0.702997   0.128012   0.356339   0 
N4       N      0.725011   0.104962   0.462384   0 
Zn1      Zn     0.601301   0.895171   0.748443   0 
C2       C      0.657378   0.973641   0.780367   0 
C3       C      0.692835   0.947472   0.80042    0 
H3       H      0.691887   0.909856   0.800191   0 
C4       C      0.730091   0.971731   0.820882   0 
H4       H      0.758471   0.952624   0.836541   0 
C6B      C      0.582304   0.877972   0.845508   0 
C7B      C      0.560282   0.920686   0.852103   0 
H7B      H      0.559044   0.946692   0.825102   0 
C8B      C      0.537904   0.92845    0.894807   0 
H8B      H      0.52005    0.960943   0.900876   0 
H9       H      0.701983   0.930642   0.702142   0 
C10      C      0.647333   0.831561   0.683035   0 
C11      C      0.616837   0.791263   0.689055   0 
H11      H      0.589588   0.791174   0.715017   0 
C12B     C      0.623545   0.754421   0.660902   0 
H12B     H      0.601473   0.724175   0.664569   0 
C13B     C      0.522788   0.900657   0.681822   0 
C14B     C      0.548423   0.906458   0.641131   0 
H14B     H      0.585956   0.9067     0.641356   0 
C16B     C      0.523659   0.911653   0.599275   0 
H16B     H      0.542288   0.915351   0.566839   0 
N1       N      0.618646   0.958308   0.759421   0 
N2       N      0.60235    0.861703   0.806602   0 
N3       N      0.644699   0.871408   0.703313   0 
N4       N      0.538625   0.894491   0.725325   0 
Zn1      Zn     0.103834   0.601573   0.749298   0 
C2       C      0.0242556  0.656709   0.780843   0 
C3       C      0.0499578  0.69218    0.801468   0 
H3       H      0.0875741  0.691313   0.801947   0 
C4       C      0.0252363  0.729352   0.821529   0 
H4       H      0.0439848  0.757737   0.837604   0 
C6B      C      0.121673   0.582198   0.845795   0 
C7B      C      0.0794366  0.559182   0.851885   0 
H7B      H      0.0538947  0.557159   0.82447    0 
C8B      C      0.0715332  0.537071   0.894694   0 
H8B      H      0.0393894  0.518512   0.900444   0 
H9       H      0.0688949  0.703105   0.704772   0 
C10      C      0.16693    0.647522   0.683455   0 
C11      C      0.206918   0.616457   0.688593   0 
H11      H      0.207216   0.589253   0.714605   0 
C12B     C      0.243217   0.622626   0.659632   0 
H12B     H      0.273242   0.600155   0.662675   0 
C13B     C      0.0844377  0.523311   0.687712   0 
C14B     C      0.060615   0.548914   0.654272   0 
H14B     H      0.0597865  0.586504   0.655281   0 
C16B     C      0.0359185  0.52408    0.620227   0 
H16B     H      0.0162626  0.542577   0.594239   0 
N1       N      0.0400947  0.618138   0.759946   0 
N2       N      0.137735   0.602608   0.807066   0 
N3       N      0.127283   0.644982   0.704098   0 
N4       N      0.10478    0.539203   0.726501   0 
Zn1      Zn     0.399334   0.104116   0.748417   0 
C2       C      0.343489   0.025375   0.780253   0 
C3       C      0.308344   0.0515952  0.800784   0 
H3       H      0.309529   0.0892047  0.800867   0 
C4       C      0.271079   0.0274021  0.821308   0 
H4       H      0.242943   0.046557   0.837345   0 
C6B      C      0.41933    0.12187    0.844801   0 
C7B      C      0.442479   0.0796787  0.85072    0 
H7B      H      0.444014   0.0539792  0.823413   0 
C8B      C      0.465166   0.0719414  0.893274   0 
H8B      H      0.483547   0.0396809  0.899001   0 
H9       H      0.298824   0.0687735  0.702449   0 
C10      C      0.353538   0.167715   0.682807   0 
C11      C      0.383955   0.208071   0.68883    0 
H11      H      0.411264   0.208178   0.714733   0 
C12B     C      0.377084   0.244949   0.660761   0 
H12B     H      0.399114   0.275229   0.664401   0 
C13B     C      0.478007   0.084142   0.687256   0 
C14B     C      0.452621   0.0606492  0.653406   0 
H14B     H      0.415014   0.0601652  0.653914   0 
C16B     C      0.477695   0.0359285  0.619526   0 
H16B     H      0.459416   0.0166546  0.593119   0 
N1       N      0.382154   0.0406594  0.75913    0 
N2       N      0.398341   0.137832   0.806313   0 
N3       N      0.356311   0.127828   0.702969   0 
N4       N      0.461861   0.10455    0.72593    0 
Zn1      Zn     0.896467   0.397488   0.749063   0 
C2       C      0.975811   0.342371   0.78094    0 
C3       C      0.950185   0.306763   0.801423   0 
H3       H      0.912562   0.307403   0.801652   0 
C4       C      0.974999   0.269763   0.821684   0 
H4       H      0.956319   0.241272   0.837651   0 
C6B      C      0.879206   0.416174   0.84622    0 
C7B      C      0.921947   0.438131   0.852852   0 
H7B      H      0.94781    0.439708   0.825739   0 
C8B      C      0.92984    0.460221   0.895667   0 
H8B      H      0.962198   0.47833    0.901638   0 
H9       H      0.931406   0.295342   0.704886   0 
C10      C      0.83348    0.351076   0.683462   0 
C11      C      0.793619   0.382344   0.688362   0 
H11      H      0.793326   0.409575   0.714342   0 
C12B     C      0.757431   0.376326   0.659235   0 
H12B     H      0.727486   0.398924   0.66214    0 
C13A     C      0.901003   0.475847   0.682103   0 
C14A     C      0.906687   0.450185   0.64141    0 
H14A     H      0.907078   0.412647   0.641688   0 
C16A     C      0.911538   0.47493    0.599493   0 
H16A     H      0.915074   0.456301   0.567047   0 
N1       N      0.9599     0.38085    0.759946   0 
N2       N      0.86284    0.396527   0.80717    0 
N3       N      0.873041   0.353502   0.704293   0 
N4       N      0.895204   0.46005    0.72567    0 
Zn1      Zn     0.601297   0.104058   0.253155   0 
C2       C      0.657101   0.0252857  0.221067   0 
C3       C      0.692281   0.0515524  0.200654   0 
H3       H      0.691146   0.0891634  0.200744   0 
C4       C      0.729523   0.0274067  0.180032   0 
H4       H      0.757685   0.0466004  0.164088   0 
C6B      C      0.582276   0.121611   0.156586   0 
C7B      C      0.559336   0.0793145  0.150589   0 
H7B      H      0.557161   0.0539251  0.178132   0 
C8B      C      0.537461   0.0711538  0.107708   0 
H8B      H      0.518982   0.0389464  0.102036   0 
H9       H      0.710104   0.0937045  0.290502   0 
C10      C      0.647068   0.167689   0.31875    0 
C11      C      0.616618   0.208023   0.312742   0 
H11      H      0.589234   0.208075   0.28692    0 
C12B     C      0.623543   0.244949   0.340735   0 
H12B     H      0.601498   0.275219   0.337092   0 
C13B     C      0.522493   0.0841146  0.314151   0 
C14B     C      0.547777   0.0605038  0.347997   0 
H14B     H      0.585385   0.0599144  0.347525   0 
C16B     C      0.522598   0.0358119  0.381823   0 
H16B     H      0.540799   0.0164464  0.408225   0 
N1       N      0.618481   0.0405347  0.242307   0 
N2       N      0.602454   0.137903   0.195346   0 
N3       N      0.644273   0.127774   0.298643   0 
N4       N      0.538738   0.104525   0.275522   0 
Zn1      Zn     0.896531   0.601995   0.252514   0 
C2       C      0.975824   0.657145   0.220814   0 
C3       C      0.950216   0.692678   0.20018    0 
H3       H      0.912595   0.691981   0.199821   0 
C4       C      0.975044   0.729668   0.17992    0 
H4       H      0.956378   0.7581     0.163832   0 
C6B      C      0.879121   0.582535   0.155479   0 
C7B      C      0.921808   0.560485   0.148821   0 
H7B      H      0.947968   0.559485   0.175686   0 
C8B      C      0.92934    0.537781   0.106244   0 
H8B      H      0.961785   0.519863   0.100138   0 
H9       H      0.906426   0.712166   0.288736   0 
C10      C      0.833527   0.648545   0.318058   0 
C11      C      0.793618   0.617333   0.313202   0 
H11      H      0.793235   0.590138   0.287183   0 
C12B     C      0.757505   0.623351   0.342421   0 
H12B     H      0.727535   0.600782   0.339565   0 
C13B     C      0.901206   0.52371    0.319585   0 
C14B     C      0.90685    0.549417   0.360255   0 
H14B     H      0.907129   0.586957   0.359951   0 
C16B     C      0.911784   0.524715   0.40219    0 
H16B     H      0.915286   0.543377   0.434619   0 
N1       N      0.959907   0.618642   0.24175    0 
N2       N      0.863047   0.60285    0.194327   0 
N3       N      0.873079   0.646025   0.297223   0 
N4       N      0.895301   0.539457   0.276009   0 
Zn1      Zn     0.399296   0.895452   0.25289    0 
C2       C      0.343254   0.97398    0.220779   0 
C3       C      0.307742   0.947802   0.200839   0 
H3       H      0.308651   0.910185   0.201158   0 
C4       C      0.270472   0.972051   0.180388   0 
H4       H      0.24205    0.952935   0.164818   0 
C6B      C      0.417545   0.878309   0.155733   0 
C7B      C      0.439474   0.921071   0.149129   0 
H7B      H      0.441272   0.94681    0.176345   0 
C8B      C      0.461253   0.929152   0.106193   0 
H8B      H      0.479294   0.961553   0.100227   0 
H9       H      0.290102   0.906018   0.290889   0 
C10      C      0.353379   0.831944   0.318416   0 
C11      C      0.383871   0.791644   0.31238    0 
H11      H      0.411139   0.791569   0.28644    0 
C12B     C      0.377133   0.754775   0.340491   0 
H12B     H      0.399185   0.724517   0.336794   0 
C13A     C      0.477865   0.900762   0.31942    0 
C14A     C      0.452278   0.906655   0.36013    0 
H14A     H      0.414746   0.907069   0.359929   0 
C16A     C      0.477085   0.911762   0.40197    0 
H16A     H      0.458487   0.915559   0.434415   0 
N1       N      0.381964   0.958649   0.241778   0 
N2       N      0.398141   0.861794   0.19484    0 
N3       N      0.35596    0.871774   0.298098   0 
N4       N      0.461976   0.894714   0.275923   0 
Zn1      Zn     0.104065   0.39798    0.252166   0 
C2       C      0.0245406  0.342795   0.220836   0 
C3       C      0.0502132  0.307361   0.20011    0 
H3       H      0.0878269  0.30827    0.199505   0 
C4       C      0.0254632  0.270179   0.180103   0 
H4       H      0.0441864  0.241821   0.163949   0 
C6B      C      0.121986   0.418382   0.15586    0 
C7B      C      0.0798433  0.4416     0.149904   0 
H7B      H      0.0540403  0.443011   0.177121   0 
C8B      C      0.0722785  0.464465   0.107415   0 
H8B      H      0.0400588  0.482895   0.101643   0 
H9       H      0.0692871  0.296284   0.296699   0 
C10      C      0.167281   0.352016   0.317857   0 
C11      C      0.207221   0.383133   0.312671   0 
H11      H      0.207477   0.410296   0.286615   0 
C12B     C      0.243535   0.377053   0.341634   0 
H12B     H      0.273521   0.399571   0.338566   0 
C13A     C      0.0845964  0.476125   0.313936   0 
C14A     C      0.0607948  0.450445   0.347335   0 
H14A     H      0.0600393  0.412854   0.346287   0 
C16A     C      0.036016   0.475195   0.381384   0 
H16A     H      0.0163761  0.456621   0.407338   0 
N1       N      0.0403964  0.381398   0.24165    0 
N2       N      0.137771   0.397161   0.194286   0 
N3       N      0.127615   0.354496   0.297244   0 
N4       N      0.104979   0.460311   0.27513    0 
Zn1      Zn     0.748754   0.60167    0.897779   0 
C2       C      0.779691   0.657192   0.977421   0 
C3       C      0.799815   0.693023   0.951808   0 
H3       H      0.79939    0.69277    0.914183   0 
C4       C      0.820586   0.72973    0.976633   0 
H4       H      0.83624    0.758401   0.957961   0 
C6B      C      0.849595   0.593839   0.88365    0 
C7B      C      0.860124   0.583672   0.929972   0 
H7B      H      0.833847   0.580513   0.956297   0 
C8B      C      0.906914   0.576704   0.941906   0 
H8B      H      0.916438   0.570295   0.977663   0 
H9       H      0.711588   0.711895   0.906      0 
C10      C      0.682845   0.64681    0.834073   0 
C11      C      0.687286   0.614601   0.794901   0 
H11      H      0.712706   0.586871   0.795271   0 
C12B     C      0.658151   0.62012    0.758635   0 
H12B     H      0.660729   0.596796   0.729218   0 
C13A     C      0.681599   0.523456   0.902061   0 
C14A     C      0.640882   0.548972   0.908187   0 
H14A     H      0.641098   0.586506   0.908986   0 
C16A     C      0.59904    0.524086   0.912963   0 
H16A     H      0.566576   0.542607   0.916862   0 
N1       N      0.758472   0.618795   0.961461   0 
N2       N      0.807786   0.602835   0.864688   0 
N3       N      0.703878   0.645168   0.873601   0 
N4       N      0.725102   0.539397   0.896247   0 
Zn1      Zn     0.398086   0.749651   0.898064   0 
C2       C      0.342684   0.779737   0.978091   0 
C3       C      0.306905   0.800097   0.952589   0 
H3       H      0.307264   0.800069   0.914962   0 
C4       C      0.270121   0.820601   0.977522   0 
H4       H      0.241496   0.836434   0.958932   0 
C6B      C      0.404953   0.850709   0.884049   0 
C7B      C      0.414615   0.861481   0.930424   0 
H7B      H      0.417617   0.835313   0.956885   0 
C8B      C      0.421224   0.908375   0.942227   0 
H8B      H      0.427209   0.918097   0.977994   0 
H9       H      0.296291   0.70422    0.931727   0 
C10      C      0.352984   0.68376    0.834105   0 
C11      C      0.384911   0.688528   0.794736   0 
H11      H      0.412764   0.713809   0.795193   0 
C12B     C      0.378995   0.65984    0.758174   0 
H12B     H      0.402104   0.662672   0.728609   0 
C13B     C      0.475843   0.687107   0.916805   0 
C14B     C      0.450129   0.653918   0.940858   0 
H14B     H      0.412567   0.655386   0.942173   0 
C16B     C      0.474856   0.61947    0.965123   0 
H16B     H      0.456294   0.593675   0.984913   0 
N1       N      0.381192   0.75879    0.962017   0 
N2       N      0.396525   0.808756   0.865116   0 
N3       N      0.354896   0.704441   0.873808   0 
N4       N      0.460215   0.726193   0.896749   0 
Zn1      Zn     0.252091   0.397949   0.897819   0 
C2       C      0.22135    0.342359   0.97741    0 
C3       C      0.201226   0.30654    0.951778   0 
H3       H      0.201727   0.306767   0.914154   0 
C4       C      0.18034    0.269883   0.976579   0 
H4       H      0.164691   0.24122    0.957892   0 
C6B      C      0.151104   0.405195   0.884501   0 
C7B      C      0.140844   0.415234   0.930915   0 
H7B      H      0.167303   0.418959   0.95697    0 
C8B      C      0.0940777  0.421479   0.943301   0 
H8B      H      0.0848269  0.427842   0.979155   0 
H9       H      0.289215   0.287754   0.905948   0 
C10      C      0.317726   0.352723   0.833827   0 
C11      C      0.313162   0.384889   0.794633   0 
H11      H      0.287773   0.412645   0.79507    0 
C12B     C      0.342154   0.379299   0.758263   0 
H12B     H      0.339491   0.402596   0.728832   0 
C13A     C      0.31917    0.476229   0.901966   0 
C14A     C      0.359915   0.450769   0.908106   0 
H14A     H      0.359736   0.413232   0.908928   0 
C16A     C      0.40173    0.475713   0.912816   0 
H16A     H      0.434223   0.457241   0.916699   0 
N1       N      0.242594   0.380759   0.961478   0 
N2       N      0.192864   0.396752   0.865167   0 
N3       N      0.296852   0.354435   0.873436   0 
N4       N      0.275695   0.460224   0.896154   0 
Zn1      Zn     0.602567   0.249989   0.898681   0 
C2       C      0.6581     0.220195   0.9786     0 
C3       C      0.693853   0.199848   0.953045   0 
H3       H      0.693469   0.199926   0.915419   0 
C4       C      0.730638   0.17928    0.977922   0 
H4       H      0.759245   0.163465   0.959289   0 
C6B      C      0.596319   0.148761   0.885519   0 
C7B      C      0.587076   0.138184   0.93203    0 
H7B      H      0.583676   0.164481   0.958297   0 
C8B      C      0.581254   0.0912983  0.944242   0 
H8B      H      0.575543   0.0817942  0.98013    0 
H9       H      0.704393   0.295526   0.932166   0 
C10      C      0.647624   0.31572    0.834523   0 
C11      C      0.615671   0.310877   0.795185   0 
H11      H      0.587844   0.285569   0.795689   0 
C12B     C      0.621522   0.339536   0.758589   0 
H12B     H      0.598389   0.336651   0.729049   0 
C13B     C      0.524745   0.312526   0.916991   0 
C14B     C      0.550341   0.345733   0.941145   0 
H14B     H      0.587895   0.344248   0.942675   0 
C16B     C      0.525494   0.380233   0.965206   0 
H16B     H      0.54395    0.406063   0.98506    0 
N1       N      0.619544   0.241117   0.96259    0 
N2       N      0.604083   0.190686   0.866223   0 
N3       N      0.645766   0.295084   0.874251   0 
N4       N      0.540469   0.273413   0.897091   0 
Zn1      Zn     0.749804   0.397872   0.10361    0 
C2       C      0.780066   0.34223    0.0238329  0 
C3       C      0.8004     0.306561   0.0495129  0 
H3       H      0.800277   0.307053   0.0871372  0 
C4       C      0.821001   0.269709   0.0247636  0 
H4       H      0.83681    0.241164   0.043496   0 
C6B      C      0.850772   0.404871   0.117807   0 
C7B      C      0.861654   0.414258   0.0713996  0 
H7B      H      0.835568   0.417039   0.044841   0 
C8B      C      0.908565   0.42085    0.0596759  0 
H8B      H      0.918375   0.426597   0.0238918  0 
H9       H      0.712686   0.28797    0.0957568  0 
C10      C      0.683613   0.35313    0.167495   0 
C11      C      0.688058   0.385414   0.206607   0 
H11      H      0.713379   0.413233   0.206122   0 
C12B     C      0.659025   0.379873   0.242953   0 
H12B     H      0.661587   0.403273   0.272311   0 
C13B     C      0.687511   0.475829   0.08475    0 
C14B     C      0.654212   0.450227   0.0607234  0 
H14B     H      0.655516   0.412655   0.0594641  0 
C16B     C      0.619866   0.475075   0.0364296  0 
H16B     H      0.593966   0.456611   0.0166762  0 
N1       N      0.75905    0.38078    0.0397191  0 
N2       N      0.808801   0.396407   0.136669   0 
N3       N      0.70452    0.354776   0.127901   0 
N4       N      0.726533   0.460066   0.104812   0 
Zn1      Zn     0.602548   0.748577   0.103638   0 
C2       C      0.657768   0.779271   0.0236947  0 
C3       C      0.693684   0.799488   0.0491139  0 
H3       H      0.693567   0.79918    0.0867411  0 
C4       C      0.730296   0.820189   0.0240915  0 
H4       H      0.759028   0.835912   0.0426099  0 
C6B      C      0.594899   0.849557   0.117464   0 
C7B      C      0.584483   0.859935   0.0711641  0 
H7B      H      0.581107   0.83355    0.044966   0 
C8B      C      0.577521   0.906699   0.0591015  0 
H8B      H      0.570895   0.916101   0.023355   0 
H9       H      0.712602   0.711259   0.0947942  0 
C10      C      0.648091   0.683049   0.167474   0 
C11      C      0.61628    0.687861   0.206929   0 
H11      H      0.588495   0.713218   0.206569   0 
C12B     C      0.622242   0.659146   0.243463   0 
H12B     H      0.59924    0.662031   0.273106   0 
C13B     C      0.524473   0.681228   0.0994855  0 
C14B     C      0.550052   0.640543   0.093409   0 
H14B     H      0.587586   0.640802   0.0927129  0 
C16B     C      0.525227   0.598665   0.0885891  0 
H16B     H      0.543789   0.56622    0.0847702  0 
N1       N      0.619441   0.758085   0.0398598  0 
N2       N      0.603829   0.807779   0.136543   0 
N3       N      0.64615    0.703807   0.127813   0 
N4       N      0.540335   0.724763   0.105344   0 
Zn1      Zn     0.251056   0.601763   0.103187   0 
C2       C      0.220973   0.657482   0.0234954  0 
C3       C      0.200665   0.693148   0.0492037  0 
H3       H      0.200857   0.69267    0.0868276  0 
C4       C      0.179983   0.729975   0.0244836  0 
H4       H      0.164199   0.75852    0.0432374  0 
C6B      C      0.149946   0.595467   0.116752   0 
C7B      C      0.139213   0.586404   0.0702407  0 
H7B      H      0.165409   0.583119   0.0438645  0 
C8B      C      0.0922933  0.580635   0.0581613  0 
H8B      H      0.082668   0.575088   0.0222769  0 
H9       H      0.296137   0.703947   0.0700435  0 
C10      C      0.317197   0.646532   0.167115   0 
C11      C      0.312753   0.614254   0.206231   0 
H11      H      0.287403   0.586462   0.205771   0 
C12B     C      0.341822   0.619768   0.242553   0 
H12B     H      0.339263   0.596372   0.271914   0 
C13B     C      0.313307   0.523747   0.0845481  0 
C14B     C      0.346639   0.549281   0.0604989  0 
H14B     H      0.345361   0.586851   0.0591625  0 
C16B     C      0.380992   0.524358   0.0363     0 
H16B     H      0.406932   0.54275    0.0165413  0 
N1       N      0.241976   0.618902   0.0393437  0 
N2       N      0.191919   0.603251   0.135913   0 
N3       N      0.296276   0.644888   0.127529   0 
N4       N      0.274285   0.539576   0.10454    0 
Zn1      Zn     0.398263   0.251276   0.103185   0 
C2       C      0.342916   0.22071    0.023372   0 
C3       C      0.307045   0.200503   0.0488676  0 
H3       H      0.30718    0.200913   0.0864934  0 
C4       C      0.270459   0.17966    0.0239254  0 
H4       H      0.241759   0.163951   0.0425044  0 
C6B      C      0.405482   0.150178   0.116199   0 
C7B      C      0.415695   0.140033   0.0697985  0 
H7B      H      0.41952    0.166568   0.0438289  0 
C8B      C      0.422003   0.0932904  0.0573261  0 
H8B      H      0.428528   0.0841288  0.021481   0 
H9       H      0.288156   0.288437   0.0945909  0 
C10      C      0.352664   0.316548   0.167303   0 
C11      C      0.384548   0.311732   0.206697   0 
H11      H      0.412365   0.28641    0.206261   0 
C12B     C      0.378623   0.340408   0.243266   0 
H12B     H      0.401689   0.337531   0.272859   0 
C13B     C      0.476407   0.318558   0.0993087  0 
C14B     C      0.450895   0.359257   0.0930817  0 
H14B     H      0.41336    0.359013   0.0921775  0 
C16B     C      0.475784   0.401115   0.0884222  0 
H16B     H      0.457278   0.433579   0.0845049  0 
N1       N      0.381261   0.241942   0.0394512  0 
N2       N      0.397041   0.191905   0.135626   0 
N3       N      0.354619   0.295899   0.127585   0 
N4       N      0.460469   0.27505    0.105102   0 
Zn1      Zn     0.896202   0.748052   0.602184   0 
C2       C      0.975489   0.779706   0.65751    0 
C3       C      0.949674   0.800426   0.692843   0 
H3       H      0.912061   0.800917   0.69185    0 
C4       C      0.974279   0.820585   0.730039   0 
H4       H      0.955444   0.836741   0.758321   0 
C6B      C      0.877968   0.844314   0.581852   0 
C7B      C      0.920193   0.850516   0.558839   0 
H7B      H      0.94615    0.823441   0.557534   0 
C8B      C      0.927635   0.893053   0.536014   0 
H8B      H      0.959903   0.898993   0.517709   0 
H9       H      0.930636   0.703959   0.704194   0 
C10      C      0.8332     0.681919   0.647848   0 
C11      C      0.793496   0.686623   0.616357   0 
H11      H      0.793217   0.712626   0.589141   0 
C12B     C      0.757461   0.657252   0.622125   0 
H12B     H      0.727683   0.659913   0.599284   0 
C13B     C      0.915853   0.686482   0.523889   0 
C14B     C      0.939311   0.652801   0.549515   0 
H14B     H      0.939861   0.653632   0.587115   0 
C16B     C      0.963928   0.618678   0.5247     0 
H16B     H      0.983217   0.592426   0.543211   0 
N1       N      0.959786   0.758769   0.618912   0 
N2       N      0.862279   0.805791   0.602971   0 
N3       N      0.87272    0.702834   0.645582   0 
N4       N      0.895518   0.725275   0.539792   0 
Zn1      Zn     0.896635   0.251427   0.399422   0 
C2       C      0.975953   0.219651   0.344084   0 
C3       C      0.95008    0.199004   0.30875    0 
H3       H      0.912466   0.198615   0.309747   0 
C4       C      0.974625   0.178802   0.271538   0 
H4       H      0.95574    0.162704   0.243256   0 
C6B      C      0.878688   0.154991   0.418877   0 
C7B      C      0.921048   0.148735   0.441628   0 
H7B      H      0.946725   0.176035   0.443461   0 
C8B      C      0.928908   0.105911   0.463732   0 
H8B      H      0.961136   0.100044   0.482109   0 
H9       H      0.905727   0.287627   0.2897     0 
C10      C      0.833595   0.317603   0.353878   0 
C11      C      0.793912   0.312907   0.385399   0 
H11      H      0.793665   0.286937   0.412645   0 
C12B     C      0.757862   0.342259   0.379632   0 
H12B     H      0.7281     0.339602   0.402493   0 
C13A     C      0.916008   0.312849   0.477846   0 
C14A     C      0.939583   0.346551   0.452355   0 
H14A     H      0.940355   0.345719   0.414758   0 
C16A     C      0.964016   0.380701   0.477312   0 
H16A     H      0.983394   0.406978   0.458917   0 
N1       N      0.960297   0.240674   0.382662   0 
N2       N      0.862658   0.193755   0.398502   0 
N3       N      0.873124   0.296701   0.356126   0 
N4       N      0.895798   0.27405    0.461823   0 
Zn1      Zn     0.750483   0.897957   0.398028   0 
C2       C      0.780077   0.978411   0.343026   0 
C3       C      0.800642   0.953259   0.307112   0 
H3       H      0.801007   0.915633   0.307325   0 
C4       C      0.820838   0.978543   0.270397   0 
H4       H      0.83679    0.960227   0.241662   0 
C6B      C      0.851602   0.884383   0.404583   0 
C7B      C      0.862409   0.930875   0.413649   0 
H7B      H      0.836261   0.957325   0.416739   0 
C8B      C      0.909329   0.942827   0.419681   0 
H8B      H      0.919014   0.978689   0.425317   0 
H9       H      0.714425   0.905016   0.287309   0 
C10      C      0.684398   0.834361   0.353052   0 
C11      C      0.688081   0.795695   0.385968   0 
H11      H      0.713577   0.796029   0.41363    0 
C12B     C      0.658198   0.759944   0.381171   0 
H12B     H      0.660222   0.730912   0.405027   0 
C13B     C      0.687556   0.916061   0.47544    0 
C14B     C      0.654645   0.940362   0.449612   0 
H14B     H      0.656457   0.941946   0.412075   0 
C16B     C      0.620061   0.964544   0.474195   0 
H16B     H      0.594506   0.98457    0.455511   0 
N1       N      0.759358   0.96199    0.381519   0 
N2       N      0.809611   0.865316   0.396714   0 
N3       N      0.70571    0.873738   0.354437   0 
N4       N      0.726711   0.896085   0.459962   0 
Zn1      Zn     0.104579   0.747904   0.398723   0 
C2       C      0.0255152  0.779755   0.343324   0 
C3       C      0.0512614  0.800275   0.307824   0 
H3       H      0.088882   0.800533   0.308607   0 
C4       C      0.0265719  0.820552   0.27075    0 
H4       H      0.0453461  0.836553   0.24234    0 
C6B      C      0.12225    0.844871   0.418159   0 
C7B      C      0.0794976  0.851706   0.440036   0 
H7B      H      0.0532251  0.824949   0.440927   0 
C8B      C      0.0720462  0.894308   0.462726   0 
H8B      H      0.0395552  0.900534   0.480532   0 
H9       H      0.0951834  0.711573   0.288516   0 
C10      C      0.167465   0.681899   0.352659   0 
C11      C      0.20716    0.686473   0.384184   0 
H11      H      0.207529   0.712521   0.411351   0 
C12B     C      0.243066   0.656931   0.378514   0 
H12B     H      0.272849   0.659532   0.401357   0 
C13B     C      0.0991955  0.681112   0.477106   0 
C14B     C      0.0932551  0.64045    0.451458   0 
H14B     H      0.0930679  0.64069    0.413916   0 
C16B     C      0.0878872  0.598611   0.476223   0 
H16B     H      0.0841182  0.566182   0.457606   0 
N1       N      0.0412857  0.758815   0.381883   0 
N2       N      0.138254   0.80596    0.39791    0 
N3       N      0.128036   0.703      0.35489    0 
N4       N      0.105532   0.724593   0.461292   0 
Zn1      Zn     0.251464   0.102243   0.397617   0 
C2       C      0.220793   0.0218091  0.343024   0 
C3       C      0.200137   0.0468707  0.307104   0 
H3       H      0.200014   0.0844993  0.307092   0 
C4       C      0.179563   0.0214885  0.270669   0 
H4       H      0.163522   0.0397273  0.241934   0 
C6B      C      0.15058    0.116393   0.405878   0 
C7B      C      0.139986   0.0700703  0.415971   0 
H7B      H      0.166204   0.0436462  0.418788   0 
C8B      C      0.09322    0.0582669  0.423316   0 
H8B      H      0.0836431  0.0225186  0.429733   0 
H9       H      0.286946   0.0947361  0.286483   0 
C10      C      0.317359   0.165465   0.351943   0 
C11      C      0.31393    0.204219   0.384782   0 
H11      H      0.288446   0.204085   0.412458   0 
C12B     C      0.343989   0.2398     0.379864   0 
H12B     H      0.342132   0.268908   0.403642   0 
C13B     C      0.319044   0.098588   0.475575   0 
C14B     C      0.359722   0.0924933  0.449991   0 
H14B     H      0.359431   0.0917079  0.41245    0 
C16B     C      0.401619   0.0878222  0.474821   0 
H16B     H      0.434074   0.0840479  0.456277   0 
N1       N      0.241986   0.0383395  0.381194   0 
N2       N      0.192386   0.135264   0.396693   0 
N3       N      0.295865   0.126194   0.353491   0 
N4       N      0.275498   0.104334   0.459722   0 
Zn1      Zn     0.104197   0.251706   0.602741   0 
C2       C      0.0251762  0.21958    0.658173   0 
C3       C      0.0510064  0.19922    0.693704   0 
H3       H      0.0886278  0.199128   0.692927   0 
C4       C      0.026402   0.178903   0.730813   0 
H4       H      0.0452446  0.163028   0.75925    0 
C6B      C      0.12171    0.154671   0.583885   0 
C7B      C      0.0788511  0.147842   0.562211   0 
H7B      H      0.0528352  0.174817   0.560846   0 
C8B      C      0.0710225  0.105007   0.540129   0 
H8B      H      0.038574   0.0988901  0.522232   0 
H9       H      0.0697476  0.295662   0.705171   0 
C10      C      0.167069   0.317772   0.648667   0 
C11      C      0.206652   0.313261   0.616992   0 
H11      H      0.206928   0.287266   0.589773   0 
C12B     C      0.242579   0.342793   0.62259    0 
H12B     H      0.272285   0.340227   0.599643   0 
C13B     C      0.0991338  0.318417   0.524282   0 
C14B     C      0.0930391  0.359092   0.549873   0 
H14B     H      0.0925432  0.358855   0.587415   0 
C16B     C      0.0878824  0.400925   0.525056   0 
H16B     H      0.0839773  0.433361   0.543633   0 
N1       N      0.0408689  0.240613   0.619625   0 
N2       N      0.137998   0.193755   0.603534   0 
N3       N      0.127649   0.296638   0.646564   0 
N4       N      0.105257   0.274937   0.540163   0 
Zn1      Zn     0.749      0.101882   0.603794   0 
C2       C      0.779498   0.0214781  0.658428   0 
C3       C      0.800188   0.0465413  0.69433    0 
H3       H      0.80026    0.0841694  0.694375   0 
C4       C      0.820882   0.0211616  0.730699   0 
H4       H      0.836947   0.0394015  0.759419   0 
C6B      C      0.850021   0.115303   0.596205   0 
C7B      C      0.860388   0.0689034  0.586213   0 
H7B      H      0.834001   0.0427316  0.582781   0 
C8B      C      0.907154   0.0566907  0.579629   0 
H8B      H      0.916492   0.0208574  0.573233   0 
H9       H      0.70607    0.0688578  0.707223   0 
C10      C      0.683303   0.165295   0.649549   0 
C11      C      0.686803   0.204106   0.616785   0 
H11      H      0.712287   0.203982   0.589109   0 
C12B     C      0.656803   0.239728   0.62177    0 
H12B     H      0.658709   0.268877   0.598047   0 
C13B     C      0.681491   0.0983653  0.525789   0 
C14B     C      0.640788   0.0922011  0.551315   0 
H14B     H      0.641043   0.0913545  0.588857   0 
C16B     C      0.598922   0.0875691  0.526427   0 
H16B     H      0.566446   0.083744   0.544924   0 
N1       N      0.758279   0.0380013  0.620263   0 
N2       N      0.808239   0.134506   0.604801   0 
N3       N      0.704698   0.125975   0.647908   0 
N4       N      0.725007   0.104127   0.541704   0 
Zn1      Zn     0.249899   0.897736   0.603321   0 
C2       C      0.220156   0.978273   0.658272   0 
C3       C      0.19957    0.953145   0.694188   0 
H3       H      0.199103   0.91552    0.693937   0 
C4       C      0.179507   0.978451   0.730961   0 
H4       H      0.163532   0.960152   0.759694   0 
C6B      C      0.148935   0.883411   0.596086   0 
C7B      C      0.137929   0.929796   0.586743   0 
H7B      H      0.163933   0.956464   0.584215   0 
C8B      C      0.0910147  0.941343   0.57986    0 
H8B      H      0.0811086  0.9771     0.574049   0 
H9       H      0.293621   0.930533   0.706447   0 
C10      C      0.316194   0.834324   0.648279   0 
C11      C      0.312541   0.795595   0.615434   0 
H11      H      0.287034   0.795853   0.58778    0 
C12B     C      0.342464   0.759885   0.620283   0 
H12B     H      0.340462   0.730807   0.596482   0 
C13B     C      0.312846   0.916025   0.525972   0 
C14B     C      0.345759   0.940238   0.551879   0 
H14B     H      0.343923   0.941736   0.589416   0 
C16B     C      0.380373   0.96446    0.527377   0 
H16B     H      0.405917   0.984429   0.546126   0 
N1       N      0.240848   0.96182    0.619785   0 
N2       N      0.190941   0.864686   0.604633   0 
N3       N      0.294814   0.873664   0.646853   0 
N4       N      0.273671   0.896022   0.541375   0 


