data_ZIF-69

_audit_creation_method RASPA-1.0
_audit_creation_date 2011-3-7
_audit_author_name 'David Dubbeldam'

_citation_author_name        'R. Banerjee, A. Phan, B. Wang, C. Knobler, H. Furukawa, M. Oâ€™Keeffe, and O.M. Yaghi'
_citation_title              'High-throughput synthesis of zeolitic imidazolate frameworks and application to CO2 capture'
_citation_journal_abbrev     'Science'
_citation_journal_volume     319
_citation_journal_number     5865
_citation_page_first         939
_citation_page_last          943
_citation_year               2008
_citation_special_details    'ZIF-69 removed random disorder, not optimized'

_cell_length_a    26.084
_cell_length_b    26.084
_cell_length_c    19.4082
_cell_angle_alpha 90
_cell_angle_beta  90
_cell_angle_gamma 120
_cell_volume      11435.7

_symmetry_cell_setting          triclinic
_symmetry_space_group_name_Hall 'P 1'
_symmetry_space_group_name_H-M  'P 1'
_symmetry_Int_Tables_number     1

_symmetry_equiv_pos_as_xyz 'x,y,z'

loop_
_atom_site_label
_atom_site_type_symbol
_atom_site_fract_x
_atom_site_fract_y
_atom_site_fract_z
_atom_site_charge
Zn1      Zn     0.43519    0.33203    0.40422    0 
N1       N      0.3731     0.3417     0.4508     0 
C2       C      0.3176     0.2953     0.4759     0 
C4       C      0.2286     0.205      0.4745     0 
H4       H      0.2048     0.1658     0.4575     0 
C3       C      0.2846     0.2392     0.4516     0 
H3       H      0.3008     0.2242     0.4189     0 
N2       N      0.5156     0.3983     0.4297     0 
O3A      O      0.4672     0.4523     0.377      0 
C13A     C      0.5565     0.3884     0.4669     0 
H13A     H      0.549      0.3524     0.4878     0 
N3       N      0.4056     0.3223     0.309      0 
O2       O      0.5099     0.325      0.3052     0 
C10      C      0.3564     0.3218     0.2866     0 
H10      H      0.3267     0.3215     0.3151     0 
N4       N      0.4313     0.2589     0.4396     0 
C6       C      0.4252     0.2393     0.5059     0 
C8       C      0.4218     0.2353     0.6258     0 
C7       C      0.4183     0.2666     0.5649     0 
H7       H      0.4125     0.2998     0.5651     0 
Cl2      Cl     0.4055     0.2793     0.6976     0 
Zn1      Zn     0.66797    0.10316    0.40422    0 
N1       N      0.6583     0.0314     0.4508     0 
C2       C      0.7047     0.0223     0.4759     0 
C4       C      0.795      0.0236     0.4745     0 
H4       H      0.8342     0.039      0.4575     0 
C3       C      0.7608     0.0454     0.4516     0 
H3       H      0.7758     0.0766     0.4189     0 
N2       N      0.6017     0.1173     0.4297     0 
O3A      O      0.5477     0.0149     0.377      0 
C13A     C      0.6116     0.1681     0.4669     0 
H13A     H      0.6476     0.1966     0.4878     0 
N3       N      0.6777     0.0833     0.309      0 
O2       O      0.675      0.1849     0.3052     0 
C10      C      0.6782     0.0346     0.2866     0 
H10      H      0.6785     0.0052     0.3151     0 
N4       N      0.7411     0.1724     0.4396     0 
C6       C      0.7607     0.1859     0.5059     0 
C8       C      0.7647     0.1865     0.6258     0 
C7       C      0.7334     0.1517     0.5649     0 
H7       H      0.7002     0.1127     0.5651     0 
Cl2      Cl     0.7207     0.1262     0.6976     0 
Zn1      Zn     0.89684    0.56481    0.40422    0 
N1       N      0.9686     0.6269     0.4508     0 
C2       C      0.9777     0.6824     0.4759     0 
C4       C      0.9764     0.7714     0.4745     0 
H4       H      0.961      0.7952     0.4575     0 
C3       C      0.9546     0.7154     0.4516     0 
H3       H      0.9234     0.6992     0.4189     0 
N2       N      0.8827     0.4844     0.4297     0 
O3A      O      0.9851     0.5328     0.377      0 
C13A     C      0.8319     0.4435     0.4669     0 
H13A     H      0.8034     0.451      0.4878     0 
N3       N      0.9167     0.5944     0.309      0 
O2       O      0.8151     0.4901     0.3052     0 
C10      C      0.9654     0.6436     0.2866     0 
H10      H      0.9948     0.6733     0.3151     0 
N4       N      0.8276     0.5687     0.4396     0 
C6       C      0.8141     0.5748     0.5059     0 
C8       C      0.8135     0.5782     0.6258     0 
C7       C      0.8483     0.5817     0.5649     0 
H7       H      0.8873     0.5875     0.5651     0 
Cl2      Cl     0.8738     0.5945     0.6976     0 
Zn1      Zn     0.56481    0.66797    0.90422    0 
N1       N      0.6269     0.6583     0.9508     0 
C2       C      0.6824     0.7047     0.9759     0 
C4       C      0.7714     0.795      0.9745     0 
H4       H      0.7952     0.8342     0.9575     0 
C3       C      0.7154     0.7608     0.9516     0 
H3       H      0.6992     0.7758     0.9189     0 
N2       N      0.4844     0.6017     0.9297     0 
O3A      O      0.5328     0.5477     0.877      0 
C13A     C      0.4435     0.6116     0.9669     0 
H13A     H      0.451      0.6476     0.9878     0 
N3       N      0.5944     0.6777     0.809      0 
O2       O      0.4901     0.675      0.8052     0 
C10      C      0.6436     0.6782     0.7866     0 
H10      H      0.6733     0.6785     0.8151     0 
N4       N      0.5687     0.7411     0.9396     0 
C6       C      0.5748     0.7607     0.0059     0 
C8       C      0.5782     0.7647     0.1258     0 
H8       H      0.5757     0.747      0.1694     0 
C7       C      0.5817     0.7334     0.0649     0 
H7       H      0.5875     0.7002     0.0651     0 
Zn1      Zn     0.33203    0.89684    0.90422    0 
N1       N      0.3417     0.9686     0.9508     0 
C2       C      0.2953     0.9777     0.9759     0 
C4       C      0.205      0.9764     0.9745     0 
H4       H      0.1658     0.961      0.9575     0 
C3       C      0.2392     0.9546     0.9516     0 
H3       H      0.2242     0.9234     0.9189     0 
N2       N      0.3983     0.8827     0.9297     0 
O3A      O      0.4523     0.9851     0.877      0 
C13A     C      0.3884     0.8319     0.9669     0 
H13A     H      0.3524     0.8034     0.9878     0 
N3       N      0.3223     0.9167     0.809      0 
O2       O      0.325      0.8151     0.8052     0 
C10      C      0.3218     0.9654     0.7866     0 
H10      H      0.3215     0.9948     0.8151     0 
N4       N      0.2589     0.8276     0.9396     0 
C6       C      0.2393     0.8141     0.0059     0 
C8       C      0.2353     0.8135     0.1258     0 
H8       H      0.253      0.8287     0.1694     0 
C7       C      0.2666     0.8483     0.0649     0 
H7       H      0.2998     0.8873     0.0651     0 
Zn1      Zn     0.10316    0.43519    0.90422    0 
N1       N      0.0314     0.3731     0.9508     0 
C2       C      0.0223     0.3176     0.9759     0 
C4       C      0.0236     0.2286     0.9745     0 
H4       H      0.039      0.2048     0.9575     0 
C3       C      0.0454     0.2846     0.9516     0 
H3       H      0.0766     0.3008     0.9189     0 
N2       N      0.1173     0.5156     0.9297     0 
O3A      O      0.0149     0.4672     0.877      0 
C13A     C      0.1681     0.5565     0.9669     0 
H13A     H      0.1966     0.549      0.9878     0 
N3       N      0.0833     0.4056     0.809      0 
O2       O      0.1849     0.5099     0.8052     0 
C10      C      0.0346     0.3564     0.7866     0 
H10      H      0.0052     0.3267     0.8151     0 
N4       N      0.1724     0.4313     0.9396     0 
C6       C      0.1859     0.4252     0.0059     0 
C8       C      0.1865     0.4218     0.1258     0 
H8       H      0.1713     0.4243     0.1694     0 
C7       C      0.1517     0.4183     0.0649     0 
H7       H      0.1127     0.4125     0.0651     0 
Zn1      Zn     0.33203    0.43519    0.59578    0 
N1       N      0.3417     0.3731     0.5492     0 
C2       C      0.2953     0.3176     0.5241     0 
C4       C      0.205      0.2286     0.5255     0 
C3       C      0.2392     0.2846     0.5484     0 
H3       H      0.2242     0.3008     0.5811     0 
Cl1A     Cl     0.1348     0.1784     0.544      0 
N2       N      0.3983     0.5156     0.5703     0 
O3A      O      0.4523     0.4672     0.623      0 
C13A     C      0.3884     0.5565     0.5331     0 
H13A     H      0.3524     0.549      0.5122     0 
N3       N      0.3223     0.4056     0.691      0 
O2       O      0.325      0.5099     0.6948     0 
C10      C      0.3218     0.3564     0.7134     0 
H10      H      0.3215     0.3267     0.6849     0 
N4       N      0.2589     0.4313     0.5604     0 
C6       C      0.2393     0.4252     0.4941     0 
C8       C      0.2353     0.4218     0.3742     0 
H8       H      0.253      0.4243     0.3306     0 
C7       C      0.2666     0.4183     0.4351     0 
H7       H      0.2998     0.4125     0.4349     0 
Zn1      Zn     0.10316    0.66797    0.59578    0 
N1       N      0.0314     0.6583     0.5492     0 
C2       C      0.0223     0.7047     0.5241     0 
C4       C      0.0236     0.795      0.5255     0 
C3       C      0.0454     0.7608     0.5484     0 
H3       H      0.0766     0.7758     0.5811     0 
Cl1A     Cl     0.0436     0.8652     0.544      0 
N2       N      0.1173     0.6017     0.5703     0 
O3A      O      0.0149     0.5477     0.623      0 
C13A     C      0.1681     0.6116     0.5331     0 
H13A     H      0.1966     0.6476     0.5122     0 
N3       N      0.0833     0.6777     0.691      0 
O2       O      0.1849     0.675      0.6948     0 
C10      C      0.0346     0.6782     0.7134     0 
H10      H      0.0052     0.6785     0.6849     0 
N4       N      0.1724     0.7411     0.5604     0 
C6       C      0.1859     0.7607     0.4941     0 
C8       C      0.1865     0.7647     0.3742     0 
H8       H      0.1713     0.747      0.3306     0 
C7       C      0.1517     0.7334     0.4351     0 
H7       H      0.1127     0.7002     0.4349     0 
Zn1      Zn     0.56481    0.89684    0.59578    0 
N1       N      0.6269     0.9686     0.5492     0 
C2       C      0.6824     0.9777     0.5241     0 
C4       C      0.7714     0.9764     0.5255     0 
C3       C      0.7154     0.9546     0.5484     0 
H3       H      0.6992     0.9234     0.5811     0 
Cl1A     Cl     0.8216     0.9564     0.544      0 
N2       N      0.4844     0.8827     0.5703     0 
O3A      O      0.5328     0.9851     0.623      0 
C13A     C      0.4435     0.8319     0.5331     0 
H13A     H      0.451      0.8034     0.5122     0 
N3       N      0.5944     0.9167     0.691      0 
O2       O      0.4901     0.8151     0.6948     0 
C10      C      0.6436     0.9654     0.7134     0 
H10      H      0.6733     0.9948     0.6849     0 
N4       N      0.5687     0.8276     0.5604     0 
C6       C      0.5748     0.8141     0.4941     0 
C8       C      0.5782     0.8135     0.3742     0 
H8       H      0.5757     0.8287     0.3306     0 
C7       C      0.5817     0.8483     0.4351     0 
H7       H      0.5875     0.8873     0.4349     0 
Zn1      Zn     0.66797    0.56481    0.09578    0 
N1       N      0.6583     0.6269     0.0492     0 
C2       C      0.7047     0.6824     0.0241     0 
C4       C      0.795      0.7714     0.0255     0 
C3       C      0.7608     0.7154     0.0484     0 
H3       H      0.7758     0.6992     0.0811     0 
Cl1A     Cl     0.8652     0.8216     0.044      0 
N2       N      0.6017     0.4844     0.0703     0 
O3A      O      0.5477     0.5328     0.123      0 
C13A     C      0.6116     0.4435     0.0331     0 
H13A     H      0.6476     0.451      0.0122     0 
N3       N      0.6777     0.5944     0.191      0 
O2       O      0.675      0.4901     0.1948     0 
C10      C      0.6782     0.6436     0.2134     0 
H10      H      0.6785     0.6733     0.1849     0 
N4       N      0.7411     0.5687     0.0604     0 
C6       C      0.7607     0.5748     0.9941     0 
C8       C      0.7647     0.5782     0.8742     0 
C7       C      0.7334     0.5817     0.9351     0 
H7       H      0.7002     0.5875     0.9349     0 
Cl2      Cl     0.7207     0.5945     0.8024     0 
Zn1      Zn     0.89684    0.33203    0.09578    0 
N1       N      0.9686     0.3417     0.0492     0 
C2       C      0.9777     0.2953     0.0241     0 
C4       C      0.9764     0.205      0.0255     0 
C3       C      0.9546     0.2392     0.0484     0 
H3       H      0.9234     0.2242     0.0811     0 
Cl1A     Cl     0.9564     0.1348     0.044      0 
N2       N      0.8827     0.3983     0.0703     0 
O3A      O      0.9851     0.4523     0.123      0 
C13A     C      0.8319     0.3884     0.0331     0 
H13A     H      0.8034     0.3524     0.0122     0 
N3       N      0.9167     0.3223     0.191      0 
O2       O      0.8151     0.325      0.1948     0 
C10      C      0.9654     0.3218     0.2134     0 
H10      H      0.9948     0.3215     0.1849     0 
N4       N      0.8276     0.2589     0.0604     0 
C6       C      0.8141     0.2393     0.9941     0 
C8       C      0.8135     0.2353     0.8742     0 
C7       C      0.8483     0.2666     0.9351     0 
H7       H      0.8873     0.2998     0.9349     0 
Cl2      Cl     0.8738     0.2793     0.8024     0 
Zn1      Zn     0.43519    0.10316    0.09578    0 
N1       N      0.3731     0.0314     0.0492     0 
C2       C      0.3176     0.0223     0.0241     0 
C4       C      0.2286     0.0236     0.0255     0 
C3       C      0.2846     0.0454     0.0484     0 
H3       H      0.3008     0.0766     0.0811     0 
Cl1A     Cl     0.1784     0.0436     0.044      0 
N2       N      0.5156     0.1173     0.0703     0 
O3A      O      0.4672     0.0149     0.123      0 
C13A     C      0.5565     0.1681     0.0331     0 
H13A     H      0.549      0.1966     0.0122     0 
N3       N      0.4056     0.0833     0.191      0 
O2       O      0.5099     0.1849     0.1948     0 
C10      C      0.3564     0.0346     0.2134     0 
H10      H      0.3267     0.0052     0.1849     0 
N4       N      0.4313     0.1724     0.0604     0 
C6       C      0.4252     0.1859     0.9941     0 
C8       C      0.4218     0.1865     0.8742     0 
C7       C      0.4183     0.1517     0.9351     0 
H7       H      0.4125     0.1127     0.9349     0 
Cl2      Cl     0.4055     0.1262     0.8024     0 
Zn1      Zn     0.56481    0.66797    0.59578    0 
N1       N      0.6269     0.6583     0.5492     0 
C2       C      0.6824     0.7047     0.5241     0 
C4       C      0.7714     0.795      0.5255     0 
H4       H      0.7952     0.8342     0.5425     0 
C3       C      0.7154     0.7608     0.5484     0 
H3       H      0.6992     0.7758     0.5811     0 
N2       N      0.4844     0.6017     0.5703     0 
O3A      O      0.5328     0.5477     0.623      0 
C13A     C      0.4435     0.6116     0.5331     0 
H13A     H      0.451      0.6476     0.5122     0 
N3       N      0.5944     0.6777     0.691      0 
O2       O      0.4901     0.675      0.6948     0 
C10      C      0.6436     0.6782     0.7134     0 
H10      H      0.6733     0.6785     0.6849     0 
N4       N      0.5687     0.7411     0.5604     0 
C6       C      0.5748     0.7607     0.4941     0 
C8       C      0.5782     0.7647     0.3742     0 
C7       C      0.5817     0.7334     0.4351     0 
H7       H      0.5875     0.7002     0.4349     0 
Cl2      Cl     0.5945     0.7207     0.3024     0 
Zn1      Zn     0.33203    0.89684    0.59578    0 
N1       N      0.3417     0.9686     0.5492     0 
C2       C      0.2953     0.9777     0.5241     0 
C4       C      0.205      0.9764     0.5255     0 
H4       H      0.1658     0.961      0.5425     0 
C3       C      0.2392     0.9546     0.5484     0 
H3       H      0.2242     0.9234     0.5811     0 
N2       N      0.3983     0.8827     0.5703     0 
O3A      O      0.4523     0.9851     0.623      0 
C13A     C      0.3884     0.8319     0.5331     0 
H13A     H      0.3524     0.8034     0.5122     0 
N3       N      0.3223     0.9167     0.691      0 
O2       O      0.325      0.8151     0.6948     0 
C10      C      0.3218     0.9654     0.7134     0 
H10      H      0.3215     0.9948     0.6849     0 
N4       N      0.2589     0.8276     0.5604     0 
C6       C      0.2393     0.8141     0.4941     0 
C8       C      0.2353     0.8135     0.3742     0 
C7       C      0.2666     0.8483     0.4351     0 
H7       H      0.2998     0.8873     0.4349     0 
Cl2      Cl     0.2793     0.8738     0.3024     0 
Zn1      Zn     0.10316    0.43519    0.59578    0 
N1       N      0.0314     0.3731     0.5492     0 
C2       C      0.0223     0.3176     0.5241     0 
C4       C      0.0236     0.2286     0.5255     0 
H4       H      0.039      0.2048     0.5425     0 
C3       C      0.0454     0.2846     0.5484     0 
H3       H      0.0766     0.3008     0.5811     0 
N2       N      0.1173     0.5156     0.5703     0 
O3A      O      0.0149     0.4672     0.623      0 
C13A     C      0.1681     0.5565     0.5331     0 
H13A     H      0.1966     0.549      0.5122     0 
N3       N      0.0833     0.4056     0.691      0 
O2       O      0.1849     0.5099     0.6948     0 
C10      C      0.0346     0.3564     0.7134     0 
H10      H      0.0052     0.3267     0.6849     0 
N4       N      0.1724     0.4313     0.5604     0 
C6       C      0.1859     0.4252     0.4941     0 
C8       C      0.1865     0.4218     0.3742     0 
C7       C      0.1517     0.4183     0.4351     0 
H7       H      0.1127     0.4125     0.4349     0 
Cl2      Cl     0.1262     0.4055     0.3024     0 
Zn1      Zn     0.43519    0.33203    0.09578    0 
N1       N      0.3731     0.3417     0.0492     0 
C2       C      0.3176     0.2953     0.0241     0 
C4       C      0.2286     0.205      0.0255     0 
H4       H      0.2048     0.1658     0.0425     0 
C3       C      0.2846     0.2392     0.0484     0 
H3       H      0.3008     0.2242     0.0811     0 
N2       N      0.5156     0.3983     0.0703     0 
O3A      O      0.4672     0.4523     0.123      0 
C13A     C      0.5565     0.3884     0.0331     0 
H13A     H      0.549      0.3524     0.0122     0 
N3       N      0.4056     0.3223     0.191      0 
O2       O      0.5099     0.325      0.1948     0 
C10      C      0.3564     0.3218     0.2134     0 
H10      H      0.3267     0.3215     0.1849     0 
N4       N      0.4313     0.2589     0.0604     0 
C6       C      0.4252     0.2393     0.9941     0 
C8       C      0.4218     0.2353     0.8742     0 
H8       H      0.4243     0.253      0.8306     0 
C7       C      0.4183     0.2666     0.9351     0 
H7       H      0.4125     0.2998     0.9349     0 
Zn1      Zn     0.66797    0.10316    0.09578    0 
N1       N      0.6583     0.0314     0.0492     0 
C2       C      0.7047     0.0223     0.0241     0 
C4       C      0.795      0.0236     0.0255     0 
H4       H      0.8342     0.039      0.0425     0 
C3       C      0.7608     0.0454     0.0484     0 
H3       H      0.7758     0.0766     0.0811     0 
N2       N      0.6017     0.1173     0.0703     0 
O3A      O      0.5477     0.0149     0.123      0 
C13A     C      0.6116     0.1681     0.0331     0 
H13A     H      0.6476     0.1966     0.0122     0 
N3       N      0.6777     0.0833     0.191      0 
O2       O      0.675      0.1849     0.1948     0 
C10      C      0.6782     0.0346     0.2134     0 
H10      H      0.6785     0.0052     0.1849     0 
N4       N      0.7411     0.1724     0.0604     0 
C6       C      0.7607     0.1859     0.9941     0 
C8       C      0.7647     0.1865     0.8742     0 
H8       H      0.747      0.1713     0.8306     0 
C7       C      0.7334     0.1517     0.9351     0 
H7       H      0.7002     0.1127     0.9349     0 
Zn1      Zn     0.89684    0.56481    0.09578    0 
N1       N      0.9686     0.6269     0.0492     0 
C2       C      0.9777     0.6824     0.0241     0 
C4       C      0.9764     0.7714     0.0255     0 
H4       H      0.961      0.7952     0.0425     0 
C3       C      0.9546     0.7154     0.0484     0 
H3       H      0.9234     0.6992     0.0811     0 
N2       N      0.8827     0.4844     0.0703     0 
O3A      O      0.9851     0.5328     0.123      0 
C13A     C      0.8319     0.4435     0.0331     0 
H13A     H      0.8034     0.451      0.0122     0 
N3       N      0.9167     0.5944     0.191      0 
O2       O      0.8151     0.4901     0.1948     0 
C10      C      0.9654     0.6436     0.2134     0 
H10      H      0.9948     0.6733     0.1849     0 
N4       N      0.8276     0.5687     0.0604     0 
C6       C      0.8141     0.5748     0.9941     0 
C8       C      0.8135     0.5782     0.8742     0 
H8       H      0.8287     0.5757     0.8306     0 
C7       C      0.8483     0.5817     0.9351     0 
H7       H      0.8873     0.5875     0.9349     0 
Zn1      Zn     0.66797    0.56481    0.40422    0 
N1       N      0.6583     0.6269     0.4508     0 
C2       C      0.7047     0.6824     0.4759     0 
C4       C      0.795      0.7714     0.4745     0 
C3       C      0.7608     0.7154     0.4516     0 
H3       H      0.7758     0.6992     0.4189     0 
Cl1A     Cl     0.8652     0.8216     0.456      0 
N2       N      0.6017     0.4844     0.4297     0 
O3A      O      0.5477     0.5328     0.377      0 
C13A     C      0.6116     0.4435     0.4669     0 
H13A     H      0.6476     0.451      0.4878     0 
N3       N      0.6777     0.5944     0.309      0 
O2       O      0.675      0.4901     0.3052     0 
C10      C      0.6782     0.6436     0.2866     0 
H10      H      0.6785     0.6733     0.3151     0 
N4       N      0.7411     0.5687     0.4396     0 
C6       C      0.7607     0.5748     0.5059     0 
C8       C      0.7647     0.5782     0.6258     0 
H8       H      0.747      0.5757     0.6694     0 
C7       C      0.7334     0.5817     0.5649     0 
H7       H      0.7002     0.5875     0.5651     0 
Zn1      Zn     0.89684    0.33203    0.40422    0 
N1       N      0.9686     0.3417     0.4508     0 
C2       C      0.9777     0.2953     0.4759     0 
C4       C      0.9764     0.205      0.4745     0 
C3       C      0.9546     0.2392     0.4516     0 
H3       H      0.9234     0.2242     0.4189     0 
Cl1A     Cl     0.9564     0.1348     0.456      0 
N2       N      0.8827     0.3983     0.4297     0 
O3A      O      0.9851     0.4523     0.377      0 
C13A     C      0.8319     0.3884     0.4669     0 
H13A     H      0.8034     0.3524     0.4878     0 
N3       N      0.9167     0.3223     0.309      0 
O2       O      0.8151     0.325      0.3052     0 
C10      C      0.9654     0.3218     0.2866     0 
H10      H      0.9948     0.3215     0.3151     0 
N4       N      0.8276     0.2589     0.4396     0 
C6       C      0.8141     0.2393     0.5059     0 
C8       C      0.8135     0.2353     0.6258     0 
H8       H      0.8287     0.253      0.6694     0 
C7       C      0.8483     0.2666     0.5649     0 
H7       H      0.8873     0.2998     0.5651     0 
Zn1      Zn     0.43519    0.10316    0.40422    0 
N1       N      0.3731     0.0314     0.4508     0 
C2       C      0.3176     0.0223     0.4759     0 
C4       C      0.2286     0.0236     0.4745     0 
C3       C      0.2846     0.0454     0.4516     0 
H3       H      0.3008     0.0766     0.4189     0 
Cl1A     Cl     0.1784     0.0436     0.456      0 
N2       N      0.5156     0.1173     0.4297     0 
O3A      O      0.4672     0.0149     0.377      0 
C13A     C      0.5565     0.1681     0.4669     0 
H13A     H      0.549      0.1966     0.4878     0 
N3       N      0.4056     0.0833     0.309      0 
O2       O      0.5099     0.1849     0.3052     0 
C10      C      0.3564     0.0346     0.2866     0 
H10      H      0.3267     0.0052     0.3151     0 
N4       N      0.4313     0.1724     0.4396     0 
C6       C      0.4252     0.1859     0.5059     0 
C8       C      0.4218     0.1865     0.6258     0 
H8       H      0.4243     0.1713     0.6694     0 
C7       C      0.4183     0.1517     0.5649     0 
H7       H      0.4125     0.1127     0.5651     0 
Zn1      Zn     0.33203    0.43519    0.90422    0 
N1       N      0.3417     0.3731     0.9508     0 
C2       C      0.2953     0.3176     0.9759     0 
C4       C      0.205      0.2286     0.9745     0 
C3       C      0.2392     0.2846     0.9516     0 
H3       H      0.2242     0.3008     0.9189     0 
Cl1A     Cl     0.1348     0.1784     0.956      0 
N2       N      0.3983     0.5156     0.9297     0 
O3A      O      0.4523     0.4672     0.877      0 
C13A     C      0.3884     0.5565     0.9669     0 
H13A     H      0.3524     0.549      0.9878     0 
N3       N      0.3223     0.4056     0.809      0 
O2       O      0.325      0.5099     0.8052     0 
C10      C      0.3218     0.3564     0.7866     0 
H10      H      0.3215     0.3267     0.8151     0 
N4       N      0.2589     0.4313     0.9396     0 
C6       C      0.2393     0.4252     0.0059     0
C8       C      0.2353     0.4218     0.1258     0 
C7       C      0.2666     0.4183     0.0649     0 
H7       H      0.2998     0.4125     0.0651     0 
Cl2      Cl     0.2793     0.4055     0.1976     0 
Zn1      Zn     0.10316    0.66797    0.90422    0 
N1       N      0.0314     0.6583     0.9508     0 
C2       C      0.0223     0.7047     0.9759     0 
C4       C      0.0236     0.795      0.9745     0 
C3       C      0.0454     0.7608     0.9516     0 
H3       H      0.0766     0.7758     0.9189     0 
Cl1A     Cl     0.0436     0.8652     0.956      0 
N2       N      0.1173     0.6017     0.9297     0 
O3A      O      0.0149     0.5477     0.877      0 
C13A     C      0.1681     0.6116     0.9669     0 
H13A     H      0.1966     0.6476     0.9878     0 
N3       N      0.0833     0.6777     0.809      0 
O2       O      0.1849     0.675      0.8052     0 
C10      C      0.0346     0.6782     0.7866     0 
H10      H      0.0052     0.6785     0.8151     0 
N4       N      0.1724     0.7411     0.9396     0 
C6       C      0.1859     0.7607     0.0059     0 
C8       C      0.1865     0.7647     0.1258     0 
C7       C      0.1517     0.7334     0.0649     0 
H7       H      0.1127     0.7002     0.0651     0 
Cl2      Cl     0.1262     0.7207     0.1976     0 
Zn1      Zn     0.56481    0.89684    0.90422    0 
N1       N      0.6269     0.9686     0.9508     0 
C2       C      0.6824     0.9777     0.9759     0 
C4       C      0.7714     0.9764     0.9745     0 
C3       C      0.7154     0.9546     0.9516     0 
H3       H      0.6992     0.9234     0.9189     0 
Cl1A     Cl     0.8216     0.9564     0.956      0 
N2       N      0.4844     0.8827     0.9297     0 
O3A      O      0.5328     0.9851     0.877      0 
C13A     C      0.4435     0.8319     0.9669     0 
H13A     H      0.451      0.8034     0.9878     0 
N3       N      0.5944     0.9167     0.809      0 
O2       O      0.4901     0.8151     0.8052     0 
C10      C      0.6436     0.9654     0.7866     0 
H10      H      0.6733     0.9948     0.8151     0 
N4       N      0.5687     0.8276     0.9396     0 
C6       C      0.5748     0.8141     0.0059     0 
C8       C      0.5782     0.8135     0.1258     0 
C7       C      0.5817     0.8483     0.0649     0 
H7       H      0.5875     0.8873     0.0651     0 
Cl2      Cl     0.5945     0.8738     0.1976     0 
C1       C      0.3835     0.3835     0.5        0 
H1       H      0.4199     0.4199     0.5        0 
C1       C      0.6165     0          0.5        0 
H1       H      0.5801     0          0.5        0 
C1       C      0          0.6165     0.5        0 
H1       H      0          0.5801     0.5        0 
C1       C      0.6165     0.6165     0          0 
H1       H      0.5801     0.5801     0          0 
C1       C      0.3835     1          0          0 
H1       H      0.4199     0          0          0 
C1       C      0          0.3835     0          0 
H1       H      0          0.4199     0          0 
C1       C      0.6165     0.6165     0.5        0 
H1       H      0.5801     0.5801     0.5        0 
C1       C      0.3835     1          0.5        0 
H1       H      0.4199     0          0.5        0 
C1       C      0          0.3835     0.5        0 
H1       H      0          0.4199     0.5        0 
C1       C      0.3835     0.3835     0          0 
H1       H      0.4199     0.4199     0          0 
C1       C      0.6165     0          0          0 
H1       H      0.5801     0          0          0 
C1       C      0          0.6165     0          0 
H1       H      0          0.5801     0          0 
C11      C      0.548      0.452      0.4087     0 
N9B      N      0.5192     0.4808     0.381      0 
C11      C      0.548      0.096      0.4087     0 
N9B      N      0.5192     0.0384     0.381      0 
C11      C      0.904      0.452      0.4087     0 
N9B      N      0.9616     0.4808     0.381      0 
C11      C      0.452      0.548      0.9087     0 
N9B      N      0.4808     0.5192     0.881      0 
C11      C      0.452      0.904      0.9087     0 
N9B      N      0.4808     0.9616     0.881      0 
C11      C      0.096      0.548      0.9087     0 
N9B      N      0.0384     0.5192     0.881      0 
C11      C      0.452      0.548      0.5913     0 
N9B      N      0.4808     0.5192     0.619      0 
C11      C      0.096      0.548      0.5913     0 
N9B      N      0.0384     0.5192     0.619      0 
C11      C      0.452      0.904      0.5913     0 
N9B      N      0.4808     0.9616     0.619      0 
C11      C      0.548      0.452      0.0913     0 
N9B      N      0.5192     0.4808     0.119      0 
C11      C      0.904      0.452      0.0913     0 
N9B      N      0.9616     0.4808     0.119      0 
C11      C      0.548      0.096      0.0913     0 
N9B      N      0.5192     0.0384     0.119      0 
C9       C      0.4319     0.3223     0.25       0 
N5       N      0.4884     0.3247     0.25       0 
C9       C      0.6777     0.1096     0.25       0 
N5       N      0.6753     0.1637     0.25       0 
C9       C      0.8904     0.5681     0.25       0 
N5       N      0.8363     0.5116     0.25       0 
C9       C      0.5681     0.6777     0.75       0 
N5       N      0.5116     0.6753     0.75       0 
C9       C      0.3223     0.8904     0.75       0 
N5       N      0.3247     0.8363     0.75       0 
C9       C      0.1096     0.4319     0.75       0 
N5       N      0.1637     0.4884     0.75       0 
C9       C      0.3223     0.4319     0.75       0 
N5       N      0.3247     0.4884     0.75       0 
C9       C      0.1096     0.6777     0.75       0 
N5       N      0.1637     0.6753     0.75       0 
C9       C      0.5681     0.8904     0.75       0 
N5       N      0.5116     0.8363     0.75       0 
C9       C      0.6777     0.5681     0.25       0 
N5       N      0.6753     0.5116     0.25       0 
C9       C      0.8904     0.3223     0.25       0 
N5       N      0.8363     0.3247     0.25       0 
C9       C      0.4319     0.1096     0.25       0 
N5       N      0.4884     0.1637     0.25       0 
C5       C      0.4359     0.21795    0.4044     0 
H5       H      0.4421     0.22105    0.356      0 
C5       C      0.78205    0.21795    0.4044     0 
H5       H      0.77895    0.22105    0.356      0 
C5       C      0.78205    0.5641     0.4044     0 
H5       H      0.77895    0.5579     0.356      0 
C5       C      0.5641     0.78205    0.9044     0 
H5       H      0.5579     0.77895    0.856      0 
C5       C      0.21795    0.78205    0.9044     0 
H5       H      0.22105    0.77895    0.856      0 
C5       C      0.21795    0.4359     0.9044     0 
H5       H      0.22105    0.4421     0.856      0 
C5       C      0.21795    0.4359     0.5956     0 
H5       H      0.22105    0.4421     0.644      0 
C5       C      0.21795    0.78205    0.5956     0 
H5       H      0.22105    0.77895    0.644      0 
C5       C      0.5641     0.78205    0.5956     0 
H5       H      0.5579     0.77895    0.644      0 
C5       C      0.78205    0.5641     0.0956     0 
H5       H      0.77895    0.5579     0.144      0 
C5       C      0.78205    0.21795    0.0956     0 
H5       H      0.77895    0.22105    0.144      0 
C5       C      0.4359     0.21795    0.0956     0 
H5       H      0.4421     0.22105    0.144      0 


