data_ZIF-69

_audit_creation_method RASPA-1.0
_audit_creation_date 2011-3-7
_audit_author_name 'David Dubbeldam'

_citation_author_name        'R. Banerjee, A. Phan, B. Wang, C. Knobler, H. Furukawa, M. Oâ€™Keeffe, and O.M. Yaghi'
_citation_title              'High-throughput synthesis of zeolitic imidazolate frameworks and application to CO2 capture'
_citation_journal_abbrev     'Science'
_citation_journal_volume     319
_citation_journal_number     5865
_citation_page_first         939
_citation_page_last          943
_citation_year               2008
_citation_special_details    'ZIF-69 removed random disorder and optimized with UFF'

_cell_length_a    26.084
_cell_length_b    26.084
_cell_length_c    19.4082
_cell_angle_alpha 90
_cell_angle_beta  90
_cell_angle_gamma 120
_cell_volume      11435.7

_symmetry_cell_setting          triclinic
_symmetry_space_group_name_Hall 'P 1'
_symmetry_space_group_name_H-M  'P 1'
_symmetry_Int_Tables_number     1

_symmetry_equiv_pos_as_xyz 'x,y,z'

loop_
_atom_site_label
_atom_site_type_symbol
_atom_site_fract_x
_atom_site_fract_y
_atom_site_fract_z
_atom_site_charge
Zn1      Zn     0.437016   0.333597   0.40276    0 
N1       N      0.384237   0.346137   0.460862   0 
C2       C      0.328695   0.305246   0.477806   0 
C4       C      0.238775   0.211804   0.481497   0 
H4       H      0.212353   0.166322   0.464912   0 
C3       C      0.296332   0.246912   0.455097   0 
H3       H      0.314573   0.229132   0.418356   0 
N2       N      0.516495   0.396445   0.417441   0 
O3A      O      0.460649   0.453882   0.354647   0 
C13A     C      0.558821   0.387861   0.445314   0 
H13A     H      0.552289   0.345592   0.462449   0 
N3       N      0.415758   0.330544   0.307564   0 
O2       O      0.52106    0.324049   0.307132   0 
C10      C      0.368347   0.332978   0.28467    0 
H10      H      0.33642    0.335826   0.31762    0 
N4       N      0.43278    0.260282   0.428684   0 
C6       C      0.439375   0.246368   0.49327    0 
C8       C      0.456532   0.256992   0.614944   0 
C7       C      0.447961   0.279427   0.552817   0 
H7       H      0.448742   0.321258   0.551277   0 
Cl2      Cl     0.467859   0.297061   0.691312   0 
Zn1      Zn     0.666403   0.103418   0.40276    0 
N1       N      0.653863   0.0381001  0.460862   0 
C2       C      0.694754   0.0234493  0.477806   0 
C4       C      0.788196   0.0269703  0.481497   0 
H4       H      0.833678   0.0460311  0.464912   0 
C3       C      0.753088   0.0494199  0.455097   0 
H3       H      0.770868   0.0854403  0.418356   0 
N2       N      0.603555   0.12005    0.417441   0 
O3A      O      0.546118   0.0067669  0.354647   0 
C13A     C      0.612139   0.17096    0.445314   0 
H13A     H      0.654408   0.206696   0.462449   0 
N3       N      0.669456   0.0852134  0.307564   0 
O2       O      0.675951   0.197011   0.307132   0 
C10      C      0.667022   0.0353693  0.28467    0 
H10      H      0.664174   0.0005941  0.31762    0 
N4       N      0.739718   0.172498   0.428684   0 
C6       C      0.753632   0.193007   0.49327    0 
C8       C      0.743008   0.19954    0.614944   0 
C7       C      0.720573   0.168535   0.552817   0 
H7       H      0.678742   0.127485   0.551277   0 
Cl2      Cl     0.702939   0.170798   0.691312   0 
Zn1      Zn     0.896582   0.562984   0.40276    0 
N1       N      0.9619     0.615763   0.460862   0 
C2       C      0.976551   0.671305   0.477806   0 
C4       C      0.97303    0.761225   0.481497   0 
H4       H      0.953969   0.787647   0.464912   0 
C3       C      0.95058    0.703668   0.455097   0 
H3       H      0.91456    0.685427   0.418356   0 
N2       N      0.87995    0.483505   0.417441   0 
O3A      O      0.993233   0.539351   0.354647   0 
C13A     C      0.82904    0.441179   0.445314   0 
H13A     H      0.793304   0.447711   0.462449   0 
N3       N      0.914787   0.584242   0.307564   0 
O2       O      0.802989   0.47894    0.307132   0 
C10      C      0.964631   0.631653   0.28467    0 
H10      H      0.999406   0.66358    0.31762    0 
N4       N      0.827502   0.56722    0.428684   0 
C6       C      0.806993   0.560625   0.49327    0 
C8       C      0.80046    0.543468   0.614944   0 
C7       C      0.831465   0.552039   0.552817   0 
H7       H      0.872515   0.551258   0.551277   0 
Cl2      Cl     0.829202   0.532141   0.691312   0 
Zn1      Zn     0.562848   0.666776   0.904205   0 
N1       N      0.615457   0.654379   0.962738   0 
C2       C      0.670935   0.695268   0.979925   0 
C4       C      0.760868   0.788702   0.983939   0 
H4       H      0.787306   0.834242   0.967542   0 
C3       C      0.703346   0.753659   0.957401   0 
H3       H      0.685172   0.771535   0.9207     0 
N2       N      0.483473   0.603649   0.918225   0 
O3A      O      0.540307   0.546766   0.856294   0 
C13A     C      0.440824   0.611866   0.945764   0 
H13A     H      0.447115   0.653959   0.963265   0 
N3       N      0.584283   0.669708   0.80909    0 
O2       O      0.478866   0.676099   0.808195   0 
C10      C      0.631681   0.667178   0.786349   0 
H10      H      0.663609   0.66443    0.819404   0 
N4       N      0.56692    0.740175   0.929691   0 
C6       C      0.56028    0.754931   0.993915   0 
C8       C      0.542679   0.746128   0.115553   0 
H8       H      0.535324   0.72198    0.163157   0 
C7       C      0.551294   0.722642   0.0542514  0 
H7       H      0.550249   0.680663   0.0540797  0 
Zn1      Zn     0.333224   0.896072   0.904205   0 
N1       N      0.345621   0.961078   0.962738   0 
C2       C      0.304732   0.975667   0.979925   0 
C4       C      0.211298   0.972166   0.983939   0 
H4       H      0.165758   0.953064   0.967542   0 
C3       C      0.246341   0.949687   0.957401   0 
H3       H      0.228465   0.913637   0.9207     0 
N2       N      0.396351   0.879825   0.918225   0 
O3A      O      0.453234   0.993541   0.856294   0 
C13A     C      0.388134   0.828958   0.945764   0 
H13A     H      0.346041   0.793156   0.963265   0 
N3       N      0.330292   0.914575   0.80909    0 
O2       O      0.323901   0.802767   0.808195   0 
C10      C      0.332822   0.964503   0.786349   0 
H10      H      0.33557    0.999179   0.819404   0 
N4       N      0.259825   0.826745   0.929691   0 
C6       C      0.245069   0.805348   0.993915   0 
C8       C      0.253872   0.796551   0.115553   0 
H8       H      0.27802    0.813343   0.163157   0 
C7       C      0.277358   0.828652   0.0542514  0 
H7       H      0.319337   0.869585   0.0540797  0 
Zn1      Zn     0.103928   0.437152   0.904205   0 
N1       N      0.0389215  0.384543   0.962738   0 
C2       C      0.0243329  0.329065   0.979925   0 
C4       C      0.027834   0.239132   0.983939   0 
H4       H      0.0469359  0.212694   0.967542   0 
C3       C      0.0503125  0.296654   0.957401   0 
H3       H      0.0863626  0.314828   0.9207     0 
N2       N      0.120175   0.516527   0.918225   0 
O3A      O      0.0064587  0.459693   0.856294   0 
C13A     C      0.171042   0.559176   0.945764   0 
H13A     H      0.206844   0.552885   0.963265   0 
N3       N      0.0854248  0.415717   0.80909    0 
O2       O      0.197233   0.521134   0.808195   0 
C10      C      0.035497   0.368319   0.786349   0 
H10      H      0.0008208  0.336391   0.819404   0 
N4       N      0.173255   0.43308    0.929691   0 
C6       C      0.194652   0.43972    0.993915   0 
C8       C      0.203449   0.457321   0.115553   0 
H8       H      0.186657   0.464676   0.163157   0 
C7       C      0.171348   0.448706   0.0542514  0 
H7       H      0.130415   0.449751   0.0540797  0 
Zn1      Zn     0.33377    0.437537   0.595802   0 
N1       N      0.346155   0.384845   0.537541   0 
C2       C      0.306107   0.328268   0.523944   0 
C4       C      0.215431   0.235557   0.529559   0 
C3       C      0.249375   0.294874   0.551117   0 
H3       H      0.232304   0.313692   0.588051   0 
Cl1A     Cl     0.144215   0.190689   0.563148   0 
N2       N      0.39677    0.5169     0.581636   0 
O3A      O      0.453858   0.459763   0.642213   0 
C13A     C      0.388538   0.559538   0.554111   0 
H13A     H      0.346452   0.55321    0.536518   0 
N3       N      0.331054   0.41628    0.690939   0 
O2       O      0.324184   0.521435   0.691833   0 
C10      C      0.333986   0.369102   0.713683   0 
H10      H      0.33705    0.337338   0.68066    0 
N4       N      0.260228   0.433145   0.570329   0 
C6       C      0.245374   0.439622   0.506084   0 
C8       C      0.253919   0.456794   0.384359   0 
H8       H      0.277959   0.463978   0.3367     0 
C7       C      0.277572   0.448469   0.445702   0 
H7       H      0.319584   0.449588   0.445849   0 
Zn1      Zn     0.103767   0.66623    0.595802   0 
N1       N      0.0386901  0.653845   0.537541   0 
C2       C      0.0221613  0.693893   0.523944   0 
C4       C      0.0201262  0.784569   0.529559   0 
C3       C      0.0454989  0.750625   0.551117   0 
H3       H      0.0813884  0.767696   0.588051   0 
Cl1A     Cl     0.0464739  0.855785   0.563148   0 
N2       N      0.12013    0.60323    0.581636   0 
O3A      O      0.0059052  0.546142   0.642213   0 
C13A     C      0.171      0.611462   0.554111   0 
H13A     H      0.206758   0.653548   0.536518   0 
N3       N      0.0852264  0.668946   0.690939   0 
O2       O      0.197251   0.675816   0.691833   0 
C10      C      0.0351154  0.666014   0.713683   0 
H10      H      0.0002888  0.66295    0.68066    0 
N4       N      0.172917   0.739772   0.570329   0 
C6       C      0.194248   0.754626   0.506084   0 
C8       C      0.202875   0.746081   0.384359   0 
H8       H      0.186018   0.722041   0.3367     0 
C7       C      0.170897   0.722428   0.445702   0 
H7       H      0.130004   0.680416   0.445849   0 
Zn1      Zn     0.562463   0.896233   0.595802   0 
N1       N      0.615155   0.96131    0.537541   0 
C2       C      0.671732   0.977839   0.523944   0 
C4       C      0.764443   0.979874   0.529559   0 
C3       C      0.705126   0.954501   0.551117   0 
H3       H      0.686308   0.918612   0.588051   0 
Cl1A     Cl     0.809311   0.953526   0.563148   0 
N2       N      0.4831     0.87987    0.581636   0 
O3A      O      0.540237   0.994095   0.642213   0 
C13A     C      0.440462   0.829      0.554111   0 
H13A     H      0.44679    0.793242   0.536518   0 
N3       N      0.58372    0.914774   0.690939   0 
O2       O      0.478565   0.802749   0.691833   0 
C10      C      0.630898   0.964885   0.713683   0 
H10      H      0.662662   0.999711   0.68066    0 
N4       N      0.566855   0.827083   0.570329   0 
C6       C      0.560378   0.805752   0.506084   0 
C8       C      0.543206   0.797125   0.384359   0 
H8       H      0.536022   0.813982   0.3367     0 
C7       C      0.551531   0.829103   0.445702   0 
H7       H      0.550412   0.869996   0.445849   0 
Zn1      Zn     0.665881   0.562614   0.0971991  0 
N1       N      0.65341    0.6155     0.0393567  0 
C2       C      0.693451   0.672134   0.026009   0 
C4       C      0.784159   0.764802   0.0318795  0 
C3       C      0.750167   0.705438   0.0532459  0 
H3       H      0.7672     0.686504   0.0900714  0 
Cl1A     Cl     0.855394   0.80951    0.0655097  0 
N2       N      0.603135   0.483141   0.0823998  0 
O3A      O      0.545509   0.539334   0.143778   0 
C13A     C      0.611746   0.440803   0.0546379  0 
H13A     H      0.654018   0.447344   0.0374992  0 
N3       N      0.668715   0.583695   0.192415   0 
O2       O      0.675798   0.478715   0.192831   0 
C10      C      0.66587    0.630879   0.215321   0 
H10      H      0.662712   0.662647   0.182408   0 
N4       N      0.73931    0.567138   0.0712858  0 
C6       C      0.753189   0.560449   0.0067129  0 
C8       C      0.742381   0.542833   0.885122   0 
C7       C      0.72002    0.551602   0.947199   0 
H7       H      0.678146   0.550731   0.948733   0 
Cl2      Cl     0.702135   0.531068   0.808803   0 
Zn1      Zn     0.896733   0.334119   0.0971991  0 
N1       N      0.96209    0.34659    0.0393567  0 
C2       C      0.978683   0.306549   0.026009   0 
C4       C      0.980644   0.215841   0.0318795  0 
C3       C      0.955271   0.249833   0.0532459  0 
H3       H      0.919304   0.2328     0.0900714  0 
Cl1A     Cl     0.954116   0.144606   0.0655097  0 
N2       N      0.880007   0.396865   0.0823998  0 
O3A      O      0.993825   0.454491   0.143778   0 
C13A     C      0.829057   0.388254   0.0546379  0 
H13A     H      0.793326   0.345982   0.0374992  0 
N3       N      0.914979   0.331285   0.192415   0 
O2       O      0.802917   0.324202   0.192831   0 
C10      C      0.965009   0.33413    0.215321   0 
H10      H      0.999935   0.337288   0.182408   0 
N4       N      0.827829   0.26069    0.0712858  0 
C6       C      0.80726    0.246811   0.0067129  0 
C8       C      0.800452   0.257619   0.885122   0 
C7       C      0.831581   0.27998    0.947199   0 
H7       H      0.872585   0.321854   0.948733   0 
Cl2      Cl     0.828932   0.297865   0.808803   0 
Zn1      Zn     0.437386   0.103267   0.0971991  0 
N1       N      0.3845     0.0379104  0.0393567  0 
C2       C      0.327866   0.0213168  0.026009   0 
C4       C      0.235198   0.0193564  0.0318795  0 
C3       C      0.294562   0.0447295  0.0532459  0 
H3       H      0.313496   0.0806959  0.0900714  0 
Cl1A     Cl     0.19049    0.0458841  0.0655097  0 
N2       N      0.516859   0.119993   0.0823998  0 
O3A      O      0.460666   0.0061754  0.143778   0 
C13A     C      0.559197   0.170943   0.0546379  0 
H13A     H      0.552656   0.206674   0.0374992  0 
N3       N      0.416305   0.0850208  0.192415   0 
O2       O      0.521285   0.197083   0.192831   0 
C10      C      0.369121   0.0349905  0.215321   0 
H10      H      0.337353   0.0        0.182408   0 
N4       N      0.432862   0.172171   0.0712858  0 
C6       C      0.439551   0.19274    0.0067129  0 
C8       C      0.457167   0.199548   0.885122   0 
C7       C      0.448398   0.168419   0.947199   0 
H7       H      0.449269   0.127415   0.948733   0 
Cl2      Cl     0.468932   0.171068   0.808803   0 
Zn1      Zn     0.562984   0.666403   0.59724    0 
N1       N      0.615763   0.653863   0.539138   0 
C2       C      0.671305   0.694754   0.522194   0 
C4       C      0.761225   0.788196   0.518503   0 
H4       H      0.787647   0.833678   0.535088   0 
C3       C      0.703668   0.753088   0.544903   0 
H3       H      0.685427   0.770868   0.581644   0 
N2       N      0.483505   0.603555   0.582559   0 
O3A      O      0.539351   0.546118   0.645353   0 
C13A     C      0.441179   0.612139   0.554686   0 
H13A     H      0.447711   0.654408   0.537551   0 
N3       N      0.584242   0.669456   0.692436   0 
O2       O      0.47894    0.675951   0.692868   0 
C10      C      0.631653   0.667022   0.71533    0 
H10      H      0.66358    0.664174   0.68238    0 
N4       N      0.56722    0.739718   0.571316   0 
C6       C      0.560625   0.753632   0.50673    0 
C8       C      0.543468   0.743008   0.385056   0 
C7       C      0.552039   0.720573   0.447183   0 
H7       H      0.551258   0.678742   0.448723   0 
Cl2      Cl     0.532141   0.702939   0.308688   0 
Zn1      Zn     0.333597   0.896582   0.59724    0 
N1       N      0.346137   0.9619     0.539138   0 
C2       C      0.305246   0.976551   0.522194   0 
C4       C      0.211804   0.97303    0.518503   0 
H4       H      0.166322   0.953969   0.535088   0 
C3       C      0.246912   0.95058    0.544903   0 
H3       H      0.229132   0.91456    0.581644   0 
N2       N      0.396445   0.87995    0.582559   0 
O3A      O      0.453882   0.993233   0.645353   0 
C13A     C      0.387861   0.82904    0.554686   0 
H13A     H      0.345592   0.793304   0.537551   0 
N3       N      0.330544   0.914787   0.692436   0 
O2       O      0.324049   0.802989   0.692868   0 
C10      C      0.332978   0.964631   0.71533    0 
H10      H      0.335826   0.999406   0.68238    0 
N4       N      0.260282   0.827502   0.571316   0 
C6       C      0.246368   0.806993   0.50673    0 
C8       C      0.256992   0.80046    0.385056   0 
C7       C      0.279427   0.831465   0.447183   0 
H7       H      0.321258   0.872515   0.448723   0 
Cl2      Cl     0.297061   0.829202   0.308688   0 
Zn1      Zn     0.103418   0.437016   0.59724    0 
N1       N      0.0381001  0.384237   0.539138   0 
C2       C      0.0234493  0.328695   0.522194   0 
C4       C      0.0269703  0.238775   0.518503   0 
H4       H      0.0460311  0.212353   0.535088   0 
C3       C      0.0494199  0.296332   0.544903   0 
H3       H      0.0854403  0.314573   0.581644   0 
N2       N      0.12005    0.516495   0.582559   0 
O3A      O      0.0067669  0.460649   0.645353   0 
C13A     C      0.17096    0.558821   0.554686   0 
H13A     H      0.206696   0.552289   0.537551   0 
N3       N      0.0852134  0.415758   0.692436   0 
O2       O      0.197011   0.52106    0.692868   0 
C10      C      0.0353693  0.368347   0.71533    0 
H10      H      0.0005941  0.33642    0.68238    0 
N4       N      0.172498   0.43278    0.571316   0 
C6       C      0.193007   0.439375   0.50673    0 
C8       C      0.19954    0.456532   0.385056   0 
C7       C      0.168535   0.447961   0.447183   0 
H7       H      0.127485   0.448742   0.448723   0 
Cl2      Cl     0.170798   0.467859   0.308688   0 
Zn1      Zn     0.437152   0.333224   0.095795   0 
N1       N      0.384543   0.345621   0.0372618  0 
C2       C      0.329065   0.304732   0.0200747  0 
C4       C      0.239132   0.211298   0.0160611  0 
H4       H      0.212694   0.165758   0.0324583  0 
C3       C      0.296654   0.246341   0.0425994  0 
H3       H      0.314828   0.228465   0.0792995  0 
N2       N      0.516527   0.396351   0.0817746  0 
O3A      O      0.459693   0.453234   0.143706   0 
C13A     C      0.559176   0.388134   0.0542358  0 
H13A     H      0.552885   0.346041   0.0367352  0 
N3       N      0.415717   0.330292   0.19091    0 
O2       O      0.521134   0.323901   0.191805   0 
C10      C      0.368319   0.332822   0.213651   0 
H10      H      0.336391   0.33557    0.180596   0 
N4       N      0.43308    0.259825   0.0703093  0 
C6       C      0.43972    0.245069   0.006085   0 
C8       C      0.457321   0.253872   0.884447   0 
H8       H      0.464676   0.27802    0.836843   0 
C7       C      0.448706   0.277358   0.945749   0 
H7       H      0.449751   0.319337   0.94592    0 
Zn1      Zn     0.666776   0.103928   0.095795   0 
N1       N      0.654379   0.0389215  0.0372618  0 
C2       C      0.695268   0.0243329  0.0200747  0 
C4       C      0.788702   0.027834   0.0160611  0 
H4       H      0.834242   0.0469359  0.0324583  0 
C3       C      0.753659   0.0503125  0.0425994  0 
H3       H      0.771535   0.0863626  0.0792995  0 
N2       N      0.603649   0.120175   0.0817746  0 
O3A      O      0.546766   0.0064587  0.143706   0 
C13A     C      0.611866   0.171042   0.0542358  0 
H13A     H      0.653959   0.206844   0.0367352  0 
N3       N      0.669708   0.0854248  0.19091    0 
O2       O      0.676099   0.197233   0.191805   0 
C10      C      0.667178   0.035497   0.213651   0 
H10      H      0.66443    0.0008208  0.180596   0 
N4       N      0.740175   0.173255   0.0703093  0 
C6       C      0.754931   0.194652   0.006085   0 
C8       C      0.746128   0.203449   0.884447   0 
H8       H      0.72198    0.186657   0.836843   0 
C7       C      0.722642   0.171348   0.945749   0 
H7       H      0.680663   0.130415   0.94592    0 
Zn1      Zn     0.896072   0.562848   0.095795   0 
N1       N      0.961078   0.615457   0.0372618  0 
C2       C      0.975667   0.670935   0.0200747  0 
C4       C      0.972166   0.760868   0.0160611  0 
H4       H      0.953064   0.787306   0.0324583  0 
C3       C      0.949687   0.703346   0.0425994  0 
H3       H      0.913637   0.685172   0.0792995  0 
N2       N      0.879825   0.483473   0.0817746  0 
O3A      O      0.993541   0.540307   0.143706   0 
C13A     C      0.828958   0.440824   0.0542358  0 
H13A     H      0.793156   0.447115   0.0367352  0 
N3       N      0.914575   0.584283   0.19091    0 
O2       O      0.802767   0.478866   0.191805   0 
C10      C      0.964503   0.631681   0.213651   0 
H10      H      0.999179   0.663609   0.180596   0 
N4       N      0.826745   0.56692    0.0703093  0 
C6       C      0.805348   0.56028    0.006085   0 
C8       C      0.796551   0.542679   0.884447   0 
H8       H      0.813343   0.535324   0.836843   0 
C7       C      0.828652   0.551294   0.945749   0 
H7       H      0.869585   0.550249   0.94592    0 
Zn1      Zn     0.66623    0.562463   0.404198   0 
N1       N      0.653845   0.615155   0.462459   0 
C2       C      0.693893   0.671732   0.476056   0 
C4       C      0.784569   0.764443   0.470441   0 
C3       C      0.750625   0.705126   0.448883   0 
H3       H      0.767696   0.686308   0.411949   0 
Cl1A     Cl     0.855785   0.809311   0.436852   0 
N2       N      0.60323    0.4831     0.418364   0 
O3A      O      0.546142   0.540237   0.357787   0 
C13A     C      0.611462   0.440462   0.445889   0 
H13A     H      0.653548   0.44679    0.463482   0 
N3       N      0.668946   0.58372    0.309061   0 
O2       O      0.675816   0.478565   0.308167   0 
C10      C      0.666014   0.630898   0.286317   0 
H10      H      0.66295    0.662662   0.31934    0 
N4       N      0.739772   0.566855   0.429671   0 
C6       C      0.754626   0.560378   0.493916   0 
C8       C      0.746081   0.543206   0.615641   0 
H8       H      0.722041   0.536022   0.6633     0 
C7       C      0.722428   0.551531   0.554298   0 
H7       H      0.680416   0.550412   0.554151   0 
Zn1      Zn     0.896233   0.33377    0.404198   0 
N1       N      0.96131    0.346155   0.462459   0 
C2       C      0.977839   0.306107   0.476056   0 
C4       C      0.979874   0.215431   0.470441   0 
C3       C      0.954501   0.249375   0.448883   0 
H3       H      0.918612   0.232304   0.411949   0 
Cl1A     Cl     0.953526   0.144215   0.436852   0 
N2       N      0.87987    0.39677    0.418364   0 
O3A      O      0.994095   0.453858   0.357787   0 
C13A     C      0.829      0.388538   0.445889   0 
H13A     H      0.793242   0.346452   0.463482   0 
N3       N      0.914774   0.331054   0.309061   0 
O2       O      0.802749   0.324184   0.308167   0 
C10      C      0.964885   0.333986   0.286317   0 
H10      H      0.999711   0.33705    0.31934    0 
N4       N      0.827083   0.260228   0.429671   0 
C6       C      0.805752   0.245374   0.493916   0 
C8       C      0.797125   0.253919   0.615641   0 
H8       H      0.813982   0.277959   0.6633     0 
C7       C      0.829103   0.277572   0.554298   0 
H7       H      0.869996   0.319584   0.554151   0 
Zn1      Zn     0.437537   0.103767   0.404198   0 
N1       N      0.384845   0.0386901  0.462459   0 
C2       C      0.328268   0.0221613  0.476056   0 
C4       C      0.235557   0.0201262  0.470441   0 
C3       C      0.294874   0.0454989  0.448883   0 
H3       H      0.313692   0.0813884  0.411949   0 
Cl1A     Cl     0.190689   0.0464739  0.436852   0 
N2       N      0.5169     0.12013    0.418364   0 
O3A      O      0.459763   0.0059052  0.357787   0 
C13A     C      0.559538   0.171      0.445889   0 
H13A     H      0.55321    0.206758   0.463482   0 
N3       N      0.41628    0.0852264  0.309061   0 
O2       O      0.521435   0.197251   0.308167   0 
C10      C      0.369102   0.0351154  0.286317   0 
H10      H      0.337338   0.0002888  0.31934    0 
N4       N      0.433145   0.172917   0.429671   0 
C6       C      0.439622   0.194248   0.493916   0 
C8       C      0.456794   0.202875   0.615641   0 
H8       H      0.463978   0.186018   0.6633     0 
C7       C      0.448469   0.170897   0.554298   0 
H7       H      0.449588   0.130004   0.554151   0 
Zn1      Zn     0.334119   0.437386   0.902801   0 
N1       N      0.34659    0.3845     0.960643   0 
C2       C      0.306549   0.327866   0.973991   0 
C4       C      0.215841   0.235198   0.96812    0 
C3       C      0.249833   0.294562   0.946754   0 
H3       H      0.2328     0.313496   0.909929   0 
Cl1A     Cl     0.144606   0.19049    0.93449    0 
N2       N      0.396865   0.516859   0.9176     0 
O3A      O      0.454491   0.460666   0.856222   0 
C13A     C      0.388254   0.559197   0.945362   0 
H13A     H      0.345982   0.552656   0.962501   0 
N3       N      0.331285   0.416305   0.807585   0 
O2       O      0.324202   0.521285   0.807169   0 
C10      C      0.33413    0.369121   0.784679   0 
H10      H      0.337288   0.337353   0.817592   0 
N4       N      0.26069    0.432862   0.928714   0 
C6       C      0.246811   0.439551   0.993287   0 
C8       C      0.257619   0.457167   0.114878   0 
C7       C      0.27998    0.448398   0.052801   0 
H7       H      0.321854   0.449269   0.0512672  0 
Cl2      Cl     0.297865   0.468932   0.191197   0 
Zn1      Zn     0.103267   0.665881   0.902801   0 
N1       N      0.0379104  0.65341    0.960643   0 
C2       C      0.0213168  0.693451   0.973991   0 
C4       C      0.0193564  0.784159   0.96812    0 
C3       C      0.0447295  0.750167   0.946754   0 
H3       H      0.0806959  0.7672     0.909929   0 
Cl1A     Cl     0.0458841  0.855394   0.93449    0 
N2       N      0.119993   0.603135   0.9176     0 
O3A      O      0.0061754  0.545509   0.856222   0 
C13A     C      0.170943   0.611746   0.945362   0 
H13A     H      0.206674   0.654018   0.962501   0 
N3       N      0.0850208  0.668715   0.807585   0 
O2       O      0.197083   0.675798   0.807169   0 
C10      C      0.0349905  0.66587    0.784679   0 
H10      H      0.0        0.662712   0.817592   0 
N4       N      0.172171   0.73931    0.928714   0 
C6       C      0.19274    0.753189   0.993287   0 
C8       C      0.199548   0.742381   0.114878   0 
C7       C      0.168419   0.72002    0.052801   0 
H7       H      0.127415   0.678146   0.0512672  0 
Cl2      Cl     0.171068   0.702135   0.191197   0 
Zn1      Zn     0.562614   0.896733   0.902801   0 
N1       N      0.6155     0.96209    0.960643   0 
C2       C      0.672134   0.978683   0.973991   0 
C4       C      0.764802   0.980644   0.96812    0 
C3       C      0.705438   0.955271   0.946754   0 
H3       H      0.686504   0.919304   0.909929   0 
Cl1A     Cl     0.80951    0.954116   0.93449    0 
N2       N      0.483141   0.880007   0.9176     0 
O3A      O      0.539334   0.993825   0.856222   0 
C13A     C      0.440803   0.829057   0.945362   0 
H13A     H      0.447344   0.793326   0.962501   0 
N3       N      0.583695   0.914979   0.807585   0 
O2       O      0.478715   0.802917   0.807169   0 
C10      C      0.630879   0.965009   0.784679   0 
H10      H      0.662647   0.999935   0.817592   0 
N4       N      0.567138   0.827829   0.928714   0 
C6       C      0.560449   0.80726    0.993287   0 
C8       C      0.542833   0.800452   0.114878   0 
C7       C      0.551602   0.831581   0.052801   0 
H7       H      0.550731   0.872585   0.0512672  0 
Cl2      Cl     0.531068   0.828932   0.191197   0 
C1       C      0.39354    0.394377   0.498266   0 
H1       H      0.434686   0.436121   0.497195   0 
C1       C      0.605623   0.999162   0.498266   0 
H1       H      0.563879   0.998565   0.497195   0 
C1       C      0.0008375  0.60646    0.498266   0 
H1       H      0.0014348  0.565314   0.497195   0 
C1       C      0.606104   0.606046   0.999985   0 
H1       H      0.565032   0.564243   0.998594   0 
C1       C      0.393954   0.0        0.999985   0 
H1       H      0.435757   0.0007885  0.998594   0 
C1       C      0.999942   0.393896   0.999985   0 
H1       H      0.999212   0.434968   0.998594   0 
C1       C      0.60646    0.605623   0.501734   0 
H1       H      0.565314   0.563879   0.502805   0 
C1       C      0.394377   0.0008375  0.501734   0 
H1       H      0.436121   0.0014348  0.502805   0 
C1       C      0.999162   0.39354    0.501734   0 
H1       H      0.998565   0.434686   0.502805   0 
C1       C      0.393896   0.393954   0.0        0 
H1       H      0.434968   0.435757   0.0014055  0 
C1       C      0.606046   0.999942   0.0        0 
H1       H      0.564243   0.999212   0.0014055  0 
C1       C      0.0        0.606104   0.0        0 
H1       H      0.0007885  0.565032   0.0014055  0 
C11      C      0.544873   0.454977   0.402164   0 
N9B      N      0.516597   0.483703   0.370059   0 
C11      C      0.545023   0.0898964  0.402164   0 
N9B      N      0.516297   0.0328939  0.370059   0 
C11      C      0.910104   0.455127   0.402164   0 
N9B      N      0.967106   0.483403   0.370059   0 
C11      C      0.455371   0.545253   0.902197   0 
N9B      N      0.484052   0.516923   0.870112   0 
C11      C      0.454747   0.910118   0.902197   0 
N9B      N      0.483077   0.96713    0.870112   0 
C11      C      0.0898816  0.544629   0.902197   0 
N9B      N      0.0328705  0.515948   0.870112   0 
C11      C      0.455127   0.545023   0.597836   0 
N9B      N      0.483403   0.516297   0.629941   0 
C11      C      0.0898964  0.544873   0.597836   0 
N9B      N      0.0328939  0.516597   0.629941   0 
C11      C      0.454977   0.910104   0.597836   0 
N9B      N      0.483703   0.967106   0.629941   0 
C11      C      0.544629   0.454747   0.0978028  0 
N9B      N      0.515948   0.483077   0.129888   0 
C11      C      0.910118   0.455371   0.0978028  0 
N9B      N      0.96713    0.484052   0.129888   0 
C11      C      0.545253   0.0898816  0.0978028  0 
N9B      N      0.516923   0.0328705  0.129888   0 
C9       C      0.443288   0.328427   0.24929    0 
N5       N      0.496947   0.326069   0.249403   0 
C9       C      0.671573   0.114861   0.24929    0 
N5       N      0.673931   0.170878   0.249403   0 
C9       C      0.885139   0.556712   0.24929    0 
N5       N      0.829122   0.503053   0.249403   0 
C9       C      0.556712   0.671573   0.75071    0 
N5       N      0.503053   0.673931   0.750597   0 
C9       C      0.328427   0.885139   0.75071    0 
N5       N      0.326069   0.829122   0.750597   0 
C9       C      0.114861   0.443288   0.75071    0 
N5       N      0.170878   0.496947   0.750597   0 
C9       C      0.328984   0.443737   0.749316   0 
N5       N      0.326326   0.497235   0.749437   0 
C9       C      0.114754   0.671016   0.749316   0 
N5       N      0.170909   0.673674   0.749437   0 
C9       C      0.556263   0.885246   0.749316   0 
N5       N      0.502765   0.829091   0.749437   0 
C9       C      0.671016   0.556263   0.250684   0 
N5       N      0.673674   0.502765   0.250563   0 
C9       C      0.885246   0.328984   0.250684   0 
N5       N      0.829091   0.326326   0.250563   0 
C9       C      0.443737   0.114754   0.250684   0 
N5       N      0.497235   0.170909   0.250563   0 
C5       C      0.428045   0.213894   0.391042   0 
H5       H      0.423449   0.211242   0.335582   0 
C5       C      0.786106   0.21415    0.391042   0 
H5       H      0.788758   0.212207   0.335582   0 
C5       C      0.78585    0.571955   0.391042   0 
H5       H      0.787793   0.576551   0.335582   0 
C5       C      0.572023   0.786265   0.891078   0 
H5       H      0.57671    0.788267   0.835628   0 
C5       C      0.213735   0.785758   0.891078   0 
H5       H      0.211733   0.788443   0.835628   0 
C5       C      0.214242   0.427977   0.891078   0 
H5       H      0.211557   0.42329    0.835628   0 
C5       C      0.21415    0.428045   0.608958   0 
H5       H      0.212207   0.423449   0.664418   0 
C5       C      0.213894   0.78585    0.608958   0 
H5       H      0.211242   0.787793   0.664418   0 
C5       C      0.571955   0.786106   0.608958   0 
H5       H      0.576551   0.788758   0.664418   0 
C5       C      0.785758   0.572023   0.108922   0 
H5       H      0.788443   0.57671    0.164372   0 
C5       C      0.786265   0.214242   0.108922   0 
H5       H      0.788267   0.211557   0.164372   0 
C5       C      0.427977   0.213735   0.108922   0 
H5       H      0.42329    0.211733   0.164372   0 


