data_ZIF-6

_audit_creation_method RASPA-1.0
_audit_creation_date 2011-3-5
_audit_author_name 'David Dubbeldam'

_citation_author_name        'K.S. Park, Z. Ni, A.P. Cote, J.Y. Choi, R.D. Huang, F.J. Uribe-Romo, H.K. Chae, M. Oâ€™Keeffe, and O.M. Yaghi'
_citation_title              'Exceptional chemical and thermal stability of zeolitic imidazolate frameworks'
_citation_journal_abbrev     'P. Natl. Acad. Sci. USA'
_citation_journal_volume     103
_citation_journal_number     27
_citation_page_first         10186
_citation_page_last          10191
_citation_year               2006

_cell_length_a    18.515
_cell_length_b    18.515
_cell_length_c    20.245
_cell_angle_alpha 90
_cell_angle_beta  90
_cell_angle_gamma 90
_cell_volume      6940.09

_symmetry_cell_setting          triclinic
_symmetry_space_group_name_Hall 'P 1'
_symmetry_space_group_name_H-M  'P 1'
_symmetry_Int_Tables_number     1

_symmetry_equiv_pos_as_xyz 'x,y,z'

loop_
_atom_site_label
_atom_site_type_symbol
_atom_site_fract_x
_atom_site_fract_y
_atom_site_fract_z
_atom_site_charge
C1       C      0.3409     0.5        0          0 
H1       H      0.3911     0.5        0          0 
C2       C      0.3477     0.25       0.1276     0 
H2       H      0.393      0.25       0.1475     0 
C4A      C      0.241      0.2869     0.102      0 
H4A      H      0.201      0.3166     0.0961     0 
N1       N      0.3019     0.4683     0.047      0 
N2       N      0.3138     0.3101     0.1127     0 
Zn1      Zn     0.33653    0.41347    0.125      0 
C1       C      0.75       0.0909     0.25       0 
H1       H      0.75       0.1411     0.25       0 
C2       C      0          0.0977     0.3776     0 
H2       H      0          0.143      0.3975     0 
C3A      C      0.7537     0.9817     0.2896     0 
H3A      H      0.7589     0.9433     0.3187     0 
C3B      C      0.7177     0.9816     0.2317     0 
H3B      H      0.6956     0.9413     0.2131     0 
C4A      C      0.9631     0.991      0.352      0 
H4A      H      0.9334     0.951      0.3461     0 
N1       N      0.7817     0.0519     0.297      0 
N2       N      0.9399     0.0638     0.3627     0 
Zn1      Zn     0.83653    0.08653    0.375      0 
C1       C      0.1591     0.5        0.5        0 
H1       H      0.1089     0.5        0.5        0 
C2       C      0.1523     0.75       0.6276     0 
H2       H      0.107      0.75       0.6475     0 
C4A      C      0.259      0.7131     0.602      0 
H4A      H      0.299      0.6834     0.5961     0 
N1       N      0.1981     0.5317     0.547      0 
N2       N      0.1862     0.6899     0.6127     0 
Zn1      Zn     0.16347    0.58653    0.625      0 
C1       C      0.75       0.9091     0.75       0 
H1       H      0.75       0.8589     0.75       0 
C2       C      0.5        0.90231    0.8776     0 
H2       H      0.5        0.857      0.8975     0 
C4A      C      0.5369     0.009      0.852      0 
H4A      H      0.5666     0.049      0.8461     0 
N1       N      0.7183     0.9481     0.797      0 
N2       N      0.5601     0.9362     0.8627     0 
Zn1      Zn     0.66347    0.91347    0.875      0 
C2       C      0.3477     0.75       0.8724     0 
H2       H      0.393      0.75       0.8525     0 
C3A      C      0.2317     0.5037     0.9604     0 
H3A      H      0.1933     0.5089     0.9313     0 
C3B      C      0.2316     0.4677     0.0183     0 
H3B      H      0.1913     0.4456     0.0369     0 
C4A      C      0.241      0.7131     0.898      0 
H4A      H      0.201      0.6834     0.9039     0 
N1       N      0.3019     0.5317     0.953      0 
N2       N      0.3138     0.6899     0.8873     0 
Zn1      Zn     0.33653    0.58653    0.875      0 
C2       C      0.5        0.0977     0.1224     0 
H2       H      0.5        0.143      0.1025     0 
C4A      C      0.5369     0.991      0.148      0 
H4A      H      0.5666     0.951      0.1539     0 
N1       N      0.7183     0.0519     0.203      0 
N2       N      0.5601     0.0638     0.1373     0 
Zn1      Zn     0.66347    0.08653    0.125      0 
C2       C      0.1523     0.25       0.3724     0 
H2       H      0.107      0.25       0.3525     0 
C3A      C      0.2683     0.4963     0.4604     0 
H3A      H      0.3067     0.4911     0.4313     0 
C3B      C      0.2684     0.5323     0.5183     0 
H3B      H      0.3087     0.5544     0.5369     0 
C4A      C      0.259      0.2869     0.398      0 
H4A      H      0.299      0.3166     0.4039     0 
N1       N      0.1981     0.4683     0.453      0 
N2       N      0.1862     0.3101     0.3873     0 
Zn1      Zn     0.16347    0.41347    0.375      0 
C2       C      0          0.9023     0.6224     0 
H2       H      0          0.857      0.6025     0 
C3A      C      0.7537     0.0183     0.7104     0 
H3A      H      0.7589     0.0567     0.6813     0 
C3B      C      0.7177     0.0184     0.7683     0 
H3B      H      0.6956     0.0587     0.7869     0 
C4A      C      0.9631     0.009      0.648      0 
H4A      H      0.9334     0.049      0.6539     0 
N1       N      0.7817     0.9481     0.703      0 
N2       N      0.9399     0.9362     0.6373     0 
Zn1      Zn     0.83653    0.91347    0.625      0 
C1       C      0.6591     0.5        0          0 
H1       H      0.6089     0.5        0          0 
C2       C      0.6523     0.75       0.8724     0 
H2       H      0.607      0.75       0.8525     0 
C3A      C      0.7683     0.5037     0.9604     0 
H3A      H      0.8067     0.5089     0.9313     0 
C3B      C      0.7684     0.4677     0.0183     0 
H3B      H      0.8087     0.4456     0.0369     0 
C4A      C      0.759      0.7131     0.898      0 
H4A      H      0.799      0.6834     0.9039     0 
N1       N      0.6981     0.5317     0.953      0 
N2       N      0.6862     0.6899     0.8873     0 
Zn1      Zn     0.66347    0.58653    0.875      0 
C1       C      0.25       0.9091     0.75       0 
H1       H      0.25       0.8589     0.75       0 
C4A      C      0.0369     0.009      0.648      0 
H4A      H      0.0666     0.049      0.6539     0 
N1       N      0.2183     0.9481     0.703      0 
N2       N      0.0601     0.9362     0.6373     0 
Zn1      Zn     0.16347    0.91347    0.625      0 
C1       C      0.8409     0.5        0.5        0 
H1       H      0.8911     0.5        0.5        0 
C2       C      0.8477     0.25       0.3724     0 
H2       H      0.893      0.25       0.3525     0 
C4A      C      0.741      0.2869     0.398      0 
H4A      H      0.701      0.3166     0.4039     0 
N1       N      0.8019     0.4683     0.453      0 
N2       N      0.8138     0.3101     0.3873     0 
Zn1      Zn     0.83653    0.41347    0.375      0 
C1       C      0.25       0.0909     0.25       0 
H1       H      0.25       0.1411     0.25       0 
C4A      C      0.4631     0.991      0.148      0 
H4A      H      0.4334     0.951      0.1539     0 
N1       N      0.2817     0.0519     0.203      0 
N2       N      0.4399     0.0638     0.1373     0 
Zn1      Zn     0.33653    0.08653    0.125      0 
C2       C      0.6523     0.25       0.1276     0 
H2       H      0.607      0.25       0.1475     0 
C4A      C      0.759      0.2869     0.102      0 
H4A      H      0.799      0.3166     0.0961     0 
N1       N      0.6981     0.4683     0.047      0 
N2       N      0.6862     0.3101     0.1127     0 
Zn1      Zn     0.66347    0.41347    0.125      0 
C3A      C      0.2537     0.0183     0.7896     0 
H3A      H      0.2589     0.0567     0.8187     0 
C3B      C      0.2177     0.0184     0.7317     0 
H3B      H      0.1956     0.0587     0.7131     0 
C4A      C      0.4631     0.009      0.852      0 
H4A      H      0.4334     0.049      0.8461     0 
N1       N      0.2817     0.9481     0.797      0 
N2       N      0.4399     0.9362     0.8627     0 
Zn1      Zn     0.33653    0.91347    0.875      0 
C2       C      0.8477     0.75       0.6276     0 
H2       H      0.893      0.75       0.6475     0 
C3A      C      0.7317     0.5037     0.5396     0 
H3A      H      0.6933     0.5089     0.5687     0 
C3B      C      0.7316     0.4677     0.4817     0 
H3B      H      0.6913     0.4456     0.4631     0 
C4A      C      0.741      0.7131     0.602      0 
H4A      H      0.701      0.6834     0.5961     0 
N1       N      0.8019     0.5317     0.547      0 
N2       N      0.8138     0.6899     0.6127     0 
Zn1      Zn     0.83653    0.58653    0.625      0 
C3A      C      0.2463     0.9817     0.2896     0 
H3A      H      0.2411     0.9433     0.3187     0 
C3B      C      0.2823     0.9816     0.2317     0 
H3B      H      0.3044     0.9413     0.2131     0 
C4A      C      0.0369     0.991      0.352      0 
H4A      H      0.0666     0.951      0.3461     0 
N1       N      0.2183     0.0519     0.297      0 
N2       N      0.0601     0.0638     0.3627     0 
Zn1      Zn     0.16347    0.08653    0.375      0 
C1       C      0.8409     0          0.5        0 
H1       H      0.8911     0          0.5        0 
C4A      C      0.741      0.7869     0.602      0 
H4A      H      0.701      0.8166     0.5961     0 
N1       N      0.8019     0.9683     0.547      0 
N2       N      0.8138     0.8101     0.6127     0 
C1       C      0.25       0.5909     0.75       0 
H1       H      0.25       0.6411     0.75       0 
C2       C      0.5        0.5977     0.8776     0 
H2       H      0.5        0.643      0.8975     0 
C3A      C      0.2537     0.4817     0.7896     0 
H3A      H      0.2589     0.4433     0.8187     0 
C3B      C      0.2177     0.4816     0.7317     0 
H3B      H      0.1956     0.4413     0.7131     0 
C4A      C      0.4631     0.491      0.852      0 
H4A      H      0.4334     0.451      0.8461     0 
N1       N      0.2817     0.5519     0.797      0 
N2       N      0.4399     0.5638     0.8627     0 
C1       C      0.6591     0          0          0 
H1       H      0.6089     0          0          0 
C3A      C      0.7683     0.0037     0.0396     0 
H3A      H      0.8067     0.0089     0.0687     0 
C3B      C      0.7684     0.9677     0.9817     0 
H3B      H      0.8087     0.9456     0.9631     0 
C4A      C      0.759      0.2131     0.102      0 
H4A      H      0.799      0.1834     0.0961     0 
N1       N      0.6981     0.0317     0.047      0 
N2       N      0.6862     0.1899     0.1127     0 
C1       C      0.25       0.4091     0.25       0 
H1       H      0.25       0.3589     0.25       0 
C2       C      0          0.4023     0.3776     0 
H2       H      0          0.357      0.3975     0 
C3A      C      0.2463     0.5183     0.2896     0 
H3A      H      0.2411     0.5567     0.3187     0 
C3B      C      0.2823     0.5184     0.2317     0 
H3B      H      0.3044     0.5587     0.2131     0 
C4A      C      0.0369     0.509      0.352      0 
H4A      H      0.0666     0.549      0.3461     0 
N1       N      0.2183     0.4481     0.297      0 
N2       N      0.0601     0.4362     0.3627     0 
C3A      C      0.7317     0.0037     0.4604     0 
H3A      H      0.6933     0.0089     0.4313     0 
C3B      C      0.7316     0.9677     0.5183     0 
H3B      H      0.6913     0.9456     0.5369     0 
C4A      C      0.741      0.2131     0.398      0 
H4A      H      0.701      0.1834     0.4039     0 
N1       N      0.8019     0.0317     0.453      0 
N2       N      0.8138     0.1899     0.3873     0 
C2       C      0          0.5977     0.6224     0 
H2       H      0          0.643      0.6025     0 
C4A      C      0.0369     0.491      0.648      0 
H4A      H      0.0666     0.451      0.6539     0 
N1       N      0.2183     0.5519     0.703      0 
N2       N      0.0601     0.5638     0.6373     0 
C4A      C      0.759      0.7869     0.898      0 
H4A      H      0.799      0.8166     0.9039     0 
N1       N      0.6981     0.9683     0.953      0 
N2       N      0.6862     0.8101     0.8873     0 
C2       C      0.5        0.4023     0.1224     0 
H2       H      0.5        0.357      0.1025     0 
C4A      C      0.4631     0.509      0.148      0 
H4A      H      0.4334     0.549      0.1539     0 
N1       N      0.2817     0.4481     0.203      0 
N2       N      0.4399     0.4362     0.1373     0 
C1       C      0.1591     0          0.5        0 
H1       H      0.1089     0          0.5        0 
C4A      C      0.259      0.2131     0.398      0 
H4A      H      0.299      0.1834     0.4039     0 
N1       N      0.1981     0.0317     0.453      0 
N2       N      0.1862     0.1899     0.3873     0 
C1       C      0.75       0.4091     0.25       0 
H1       H      0.75       0.3589     0.25       0 
C3A      C      0.7463     0.5183     0.2104     0 
H3A      H      0.7411     0.5567     0.1813     0 
C3B      C      0.7823     0.5184     0.2683     0 
H3B      H      0.8044     0.5587     0.2869     0 
C4A      C      0.5369     0.509      0.148      0 
H4A      H      0.5666     0.549      0.1539     0 
N1       N      0.7183     0.4481     0.203      0 
N2       N      0.5601     0.4362     0.1373     0 
C1       C      0.3409     0          0          0 
H1       H      0.3911     0          0          0 
C4A      C      0.241      0.7869     0.898      0 
H4A      H      0.201      0.8166     0.9039     0 
N1       N      0.3019     0.9683     0.953      0 
N2       N      0.3138     0.8101     0.8873     0 
C1       C      0.75       0.5909     0.75       0 
H1       H      0.75       0.6411     0.75       0 
C4A      C      0.9631     0.491      0.648      0 
H4A      H      0.9334     0.451      0.6539     0 
N1       N      0.7817     0.5519     0.703      0 
N2       N      0.9399     0.5638     0.6373     0 
C3A      C      0.2683     0.9963     0.5396     0 
H3A      H      0.3067     0.9911     0.5687     0 
C3B      C      0.2684     0.0323     0.4817     0 
H3B      H      0.3087     0.0544     0.4631     0 
C4A      C      0.259      0.7869     0.602      0 
H4A      H      0.299      0.8166     0.5961     0 
N1       N      0.1981     0.9683     0.547      0 
N2       N      0.1862     0.8101     0.6127     0 
C4A      C      0.9631     0.509      0.352      0 
H4A      H      0.9334     0.549      0.3461     0 
N1       N      0.7817     0.4481     0.297      0 
N2       N      0.9399     0.4362     0.3627     0 
C3A      C      0.2317     0.0037     0.0396     0 
H3A      H      0.1933     0.0089     0.0687     0 
C3B      C      0.2316     0.9677     0.9817     0 
H3B      H      0.1913     0.9456     0.9631     0 
C4A      C      0.241      0.2131     0.102      0 
H4A      H      0.201      0.1834     0.0961     0 
N1       N      0.3019     0.0317     0.047      0 
N2       N      0.3138     0.1899     0.1127     0 
C3A      C      0.7463     0.4817     0.7896     0 
H3A      H      0.7411     0.4433     0.8187     0 
C3B      C      0.7823     0.4816     0.7317     0 
H3B      H      0.8044     0.4413     0.7131     0 
C4A      C      0.5369     0.491      0.852      0 
H4A      H      0.5666     0.451      0.8461     0 
N1       N      0.7183     0.5519     0.797      0 
N2       N      0.5601     0.5638     0.8627     0 


