data_ZIF-4

_audit_creation_method RASPA-1.0
_audit_creation_date 2011-3-5
_audit_author_name 'David Dubbeldam'

_citation_author_name        'K.S. Park, Z. Ni, A.P. Cote, J.Y. Choi, R.D. Huang, F.J. Uribe-Romo, H.K. Chae, M. Oâ€™Keeffe, and O.M. Yaghi'
_citation_title              'Exceptional chemical and thermal stability of zeolitic imidazolate frameworks'
_citation_journal_abbrev     'P. Natl. Acad. Sci. USA'
_citation_journal_volume     103
_citation_journal_number     27
_citation_page_first         10186
_citation_page_last          10191
_citation_year               2006

_cell_length_a    15.395
_cell_length_b    15.3073
_cell_length_c    18.426
_cell_angle_alpha 90
_cell_angle_beta  90
_cell_angle_gamma 90
_cell_volume      4342.2

_symmetry_cell_setting          orthorhombic
_symmetry_space_group_name_Hall 'P 1'
_symmetry_space_group_name_H-M  'P 1'
_symmetry_Int_Tables_number     1

_symmetry_equiv_pos_as_xyz 'x,y,z'

loop_
_atom_site_label
_atom_site_type_symbol
_atom_site_fract_x
_atom_site_fract_y
_atom_site_fract_z
_atom_site_charge
C1       C      0.85769    0.7339     0.86019    0 
H1       H      0.8219     0.7801     0.8448     0 
C2       C      0.8991     0.6132     0.90571    0 
H2       H      0.8993     0.558      0.928      0 
C3       C      0.9708     0.6582     0.8837     0 
H3       H      0.0287     0.6395     0.8881     0 
C5       C      0.6911     0.5137     0.783      0 
H5       H      0.7391     0.5374     0.7583     0 
C6       C      0.6198     0.8224     0.89068    0 
H6       H      0.6372     0.8454     0.9357     0 
C7       C      0.59815    0.73721    0.80184    0 
H7       H      0.5977     0.687      0.7724     0 
C8       C      0.1059     0.84601    0.9536     0 
H8       H      0.064      0.8108     0.9764     0 
C10      C      0.076      0.8659     0.66094    0 
H10      H      0.0578     0.9245     0.6579     0 
C11      C      0.90531    0.98711    0.86161    0 
H11      H      0.9381     0.99       0.9046     0 
C12      C      0.8628     0.9499     0.7571     0 
H12      H      0.8579     0.9223     0.7117     0 
C4A      C      0.7275     0.5951     0.0703     0 
H4A      H      0.785      0.575      0.0661     0 
C9A      C      0.183      0.8976     0.8675     0 
H9A      H      0.2038     0.9106     0.8208     0 
N1       N      0.82702    0.66148    0.8901     0 
N2       N      0.94376    0.73514    0.85396    0 
N3       N      0.67417    0.62256    0.01153    0 
N4       N      0.6637     0.53685    0.85008    0 
N5       N      0.6349     0.73928    0.86682    0 
N6       N      0.10088    0.86758    0.88468    0 
N7       N      0.06206    0.81197    0.71808    0 
N8       N      0.92445    0.93287    0.80772    0 
Zn1      Zn     0.70215    0.63949    0.908302   0 
Zn2      Zn     0.009635   0.83602    0.813743   0 
C1       C      0.64231    0.2661     0.36019    0 
H1       H      0.6781     0.2199     0.3448     0 
C2       C      0.6009     0.3868     0.40571    0 
H2       H      0.6007     0.442      0.428      0 
C3       C      0.5292     0.3418     0.3837     0 
H3       H      0.4713     0.3605     0.3881     0 
C5       C      0.8089     0.4863     0.283      0 
H5       H      0.7609     0.4626     0.2583     0 
C6       C      0.8802     0.1776     0.39068    0 
H6       H      0.8628     0.1546     0.4357     0 
C7       C      0.90185    0.26279    0.30184    0 
H7       H      0.9023     0.313      0.2724     0 
C8       C      0.3941     0.15399    0.4536     0 
H8       H      0.436      0.1892     0.4764     0 
C10      C      0.424      0.1341     0.16094    0 
H10      H      0.4422     0.0755     0.1579     0 
C11      C      0.59469    0.01289    0.36161    0 
H11      H      0.5619     0.01       0.4046     0 
C12      C      0.6372     0.0501     0.2571     0 
H12      H      0.6421     0.0777     0.2117     0 
C9B      C      0.3349     0.0677     0.3788     0 
H9B      H      0.3236     0.0338     0.3373     0 
C4B      C      0.792      0.4381     0.557      0 
H4B      H      0.7468     0.4772     0.546      0 
N1       N      0.67298    0.33852    0.3901     0 
N2       N      0.55624    0.26486    0.35396    0 
N3       N      0.82583    0.37744    0.51153    0 
N4       N      0.8363     0.46315    0.35008    0 
N5       N      0.8651     0.26072    0.36682    0 
N6       N      0.39912    0.13242    0.38468    0 
N7       N      0.43794    0.18803    0.21808    0 
N8       N      0.57555    0.06713    0.30772    0 
Zn1      Zn     0.79785    0.36051    0.408302   0 
Zn2      Zn     0.490365   0.16398    0.313743   0 
C1       C      0.35769    0.7661     0.13981    0 
H1       H      0.3219     0.7199     0.1552     0 
C2       C      0.3991     0.8868     0.09429    0 
H2       H      0.3993     0.942      0.072      0 
C3       C      0.4708     0.8418     0.1163     0 
H3       H      0.5287     0.8605     0.1119     0 
C5       C      0.1911     0.9863     0.217      0 
H5       H      0.2391     0.9626     0.2417     0 
C6       C      0.1198     0.6776     0.10932    0 
H6       H      0.1372     0.6546     0.0643     0 
C7       C      0.09815    0.76279    0.19816    0 
H7       H      0.0977     0.813      0.2276     0 
C8       C      0.6059     0.65399    0.0464     0 
H8       H      0.564      0.6892     0.0236     0 
C10      C      0.576      0.6341     0.33906    0 
H10      H      0.5578     0.5755     0.3421     0 
C11      C      0.40531    0.51289    0.13839    0 
H11      H      0.4381     0.51       0.0954     0 
C12      C      0.3628     0.5501     0.2429     0 
H12      H      0.3579     0.5777     0.2883     0 
C4A      C      0.2275     0.9049     0.9297     0 
H4A      H      0.285      0.925      0.9339     0 
C9A      C      0.683      0.6024     0.1325     0 
H9A      H      0.7038     0.5894     0.1792     0 
N1       N      0.32702    0.83852    0.1099     0 
N2       N      0.44376    0.76486    0.14604    0 
N3       N      0.17417    0.87744    0.98847    0 
N4       N      0.1637     0.96315    0.14992    0 
N5       N      0.1349     0.76072    0.13318    0 
N6       N      0.60088    0.63242    0.11532    0 
N7       N      0.56206    0.68803    0.28192    0 
N8       N      0.42445    0.56713    0.19228    0 
Zn1      Zn     0.20215    0.86051    0.091698   0 
Zn2      Zn     0.509635   0.66398    0.186257   0 
C1       C      0.14231    0.2339     0.63981    0 
H1       H      0.1781     0.2801     0.6552     0 
C2       C      0.1009     0.1132     0.59429    0 
H2       H      0.1007     0.058      0.572      0 
C3       C      0.0292     0.1582     0.6163     0 
H3       H      0.9713     0.1395     0.6119     0 
C5       C      0.3089     0.0137     0.717      0 
H5       H      0.2609     0.0374     0.7417     0 
C6       C      0.3802     0.3224     0.60932    0 
H6       H      0.3628     0.3454     0.5643     0 
C7       C      0.40185    0.23721    0.69816    0 
H7       H      0.4023     0.187      0.7276     0 
C8       C      0.8941     0.34601    0.5464     0 
H8       H      0.936      0.3108     0.5236     0 
C10      C      0.924      0.3659     0.83906    0 
H10      H      0.9422     0.4245     0.8421     0 
C11      C      0.09469    0.48711    0.63839    0 
H11      H      0.0619     0.49       0.5954     0 
C12      C      0.1372     0.4499     0.7429     0 
H12      H      0.1421     0.4223     0.7883     0 
C9B      C      0.8349     0.4323     0.6212     0 
H9B      H      0.8236     0.4662     0.6627     0 
C4B      C      0.292      0.0619     0.443      0 
H4B      H      0.2468     0.0228     0.454      0 
N1       N      0.17298    0.16148    0.6099     0 
N2       N      0.05624    0.23514    0.64604    0 
N3       N      0.32583    0.12256    0.48847    0 
N4       N      0.3363     0.03685    0.64992    0 
N5       N      0.3651     0.23928    0.63318    0 
N6       N      0.89912    0.36758    0.61532    0 
N7       N      0.93794    0.31197    0.78192    0 
N8       N      0.07555    0.43287    0.69228    0 
Zn1      Zn     0.29785    0.13949    0.591698   0 
Zn2      Zn     0.990365   0.33602    0.686257   0 
C1       C      0.14231    0.2661     0.13981    0 
H1       H      0.1781     0.2199     0.1552     0 
C2       C      0.1009     0.3868     0.09429    0 
H2       H      0.1007     0.442      0.072      0 
C3       C      0.0292     0.3418     0.1163     0 
H3       H      0.9713     0.3605     0.1119     0 
C5       C      0.3089     0.4863     0.217      0 
H5       H      0.2609     0.4626     0.2417     0 
C6       C      0.3802     0.1776     0.10932    0 
H6       H      0.3628     0.1546     0.0643     0 
C7       C      0.40185    0.26279    0.19816    0 
H7       H      0.4023     0.313      0.2276     0 
C8       C      0.8941     0.15399    0.0464     0 
H8       H      0.936      0.1892     0.0236     0 
C10      C      0.924      0.1341     0.33906    0 
H10      H      0.9422     0.0755     0.3421     0 
C11      C      0.09469    0.01289    0.13839    0 
H11      H      0.0619     0.01       0.0954     0 
C12      C      0.1372     0.0501     0.2429     0 
H12      H      0.1421     0.0777     0.2883     0 
C4A      C      0.2725     0.4049     0.9297     0 
H4A      H      0.215      0.425      0.9339     0 
C9A      C      0.817      0.1024     0.1325     0 
H9A      H      0.7962     0.0894     0.1792     0 
N1       N      0.17298    0.33852    0.1099     0 
N2       N      0.05624    0.26486    0.14604    0 
N3       N      0.32583    0.37744    0.98847    0 
N4       N      0.3363     0.46315    0.14992    0 
N5       N      0.3651     0.26072    0.13318    0 
N6       N      0.89912    0.13242    0.11532    0 
N7       N      0.93794    0.18803    0.28192    0 
N8       N      0.07555    0.06713    0.19228    0 
Zn1      Zn     0.29785    0.36051    0.091698   0 
Zn2      Zn     0.990365   0.16398    0.186257   0 
C1       C      0.35769    0.7339     0.63981    0 
H1       H      0.3219     0.7801     0.6552     0 
C2       C      0.3991     0.6132     0.59429    0 
H2       H      0.3993     0.558      0.572      0 
C3       C      0.4708     0.6582     0.6163     0 
H3       H      0.5287     0.6395     0.6119     0 
C5       C      0.1911     0.5137     0.717      0 
H5       H      0.2391     0.5374     0.7417     0 
C6       C      0.1198     0.8224     0.60932    0 
H6       H      0.1372     0.8454     0.5643     0 
C7       C      0.09815    0.73721    0.69816    0 
H7       H      0.0977     0.687      0.7276     0 
C8       C      0.6059     0.84601    0.5464     0 
H8       H      0.564      0.8108     0.5236     0 
C10      C      0.576      0.8659     0.83906    0 
H10      H      0.5578     0.9245     0.8421     0 
C11      C      0.40531    0.98711    0.63839    0 
H11      H      0.4381     0.99       0.5954     0 
C12      C      0.3628     0.9499     0.7429     0 
H12      H      0.3579     0.9223     0.7883     0 
C9B      C      0.6651     0.9323     0.6212     0 
H9B      H      0.6764     0.9662     0.6627     0 
C4B      C      0.208      0.5619     0.443      0 
H4B      H      0.2532     0.5228     0.454      0 
N1       N      0.32702    0.66148    0.6099     0 
N2       N      0.44376    0.73514    0.64604    0 
N3       N      0.17417    0.62256    0.48847    0 
N4       N      0.1637     0.53685    0.64992    0 
N5       N      0.1349     0.73928    0.63318    0 
N6       N      0.60088    0.86758    0.61532    0 
N7       N      0.56206    0.81197    0.78192    0 
N8       N      0.42445    0.93287    0.69228    0 
Zn1      Zn     0.20215    0.63949    0.591698   0 
Zn2      Zn     0.509635   0.83602    0.686257   0 
C1       C      0.64231    0.2339     0.86019    0 
H1       H      0.6781     0.2801     0.8448     0 
C2       C      0.6009     0.1132     0.90571    0 
H2       H      0.6007     0.058      0.928      0 
C3       C      0.5292     0.1582     0.8837     0 
H3       H      0.4713     0.1395     0.8881     0 
C5       C      0.8089     0.0137     0.783      0 
H5       H      0.7609     0.0374     0.7583     0 
C6       C      0.8802     0.3224     0.89068    0 
H6       H      0.8628     0.3454     0.9357     0 
C7       C      0.90185    0.23721    0.80184    0 
H7       H      0.9023     0.187      0.7724     0 
C8       C      0.3941     0.34601    0.9536     0 
H8       H      0.436      0.3108     0.9764     0 
C10      C      0.424      0.3659     0.66094    0 
H10      H      0.4422     0.4245     0.6579     0 
C11      C      0.59469    0.48711    0.86161    0 
H11      H      0.5619     0.49       0.9046     0 
C12      C      0.6372     0.4499     0.7571     0 
H12      H      0.6421     0.4223     0.7117     0 
C4A      C      0.7725     0.0951     0.0703     0 
H4A      H      0.715      0.075      0.0661     0 
C9A      C      0.317      0.3976     0.8675     0 
H9A      H      0.2962     0.4106     0.8208     0 
N1       N      0.67298    0.16148    0.8901     0 
N2       N      0.55624    0.23514    0.85396    0 
N3       N      0.82583    0.12256    0.01153    0 
N4       N      0.8363     0.03685    0.85008    0 
N5       N      0.8651     0.23928    0.86682    0 
N6       N      0.39912    0.36758    0.88468    0 
N7       N      0.43794    0.31197    0.71808    0 
N8       N      0.57555    0.43287    0.80772    0 
Zn1      Zn     0.79785    0.13949    0.908302   0 
Zn2      Zn     0.490365   0.33602    0.813743   0 
C1       C      0.85769    0.7661     0.36019    0 
H1       H      0.8219     0.7199     0.3448     0 
C2       C      0.8991     0.8868     0.40571    0 
H2       H      0.8993     0.942      0.428      0 
C3       C      0.9708     0.8418     0.3837     0 
H3       H      0.0287     0.8605     0.3881     0 
C5       C      0.6911     0.9863     0.283      0 
H5       H      0.7391     0.9626     0.2583     0 
C6       C      0.6198     0.6776     0.39068    0 
H6       H      0.6372     0.6546     0.4357     0 
C7       C      0.59815    0.76279    0.30184    0 
H7       H      0.5977     0.813      0.2724     0 
C8       C      0.1059     0.65399    0.4536     0 
H8       H      0.064      0.6892     0.4764     0 
C10      C      0.076      0.6341     0.16094    0 
H10      H      0.0578     0.5755     0.1579     0 
C11      C      0.90531    0.51289    0.36161    0 
H11      H      0.9381     0.51       0.4046     0 
C12      C      0.8628     0.5501     0.2571     0 
H12      H      0.8579     0.5777     0.2117     0 
C9B      C      0.1651     0.5677     0.3788     0 
H9B      H      0.1764     0.5338     0.3373     0 
C4B      C      0.708      0.9381     0.557      0 
H4B      H      0.7532     0.9772     0.546      0 
N1       N      0.82702    0.83852    0.3901     0 
N2       N      0.94376    0.76486    0.35396    0 
N3       N      0.67417    0.87744    0.51153    0 
N4       N      0.6637     0.96315    0.35008    0 
N5       N      0.6349     0.76072    0.36682    0 
N6       N      0.10088    0.63242    0.38468    0 
N7       N      0.06206    0.68803    0.21808    0 
N8       N      0.92445    0.56713    0.30772    0 
Zn1      Zn     0.70215    0.86051    0.408302   0 
Zn2      Zn     0.009635   0.66398    0.313743   0 


