data_ZIF-10a

_audit_creation_method RASPA-1.0
_audit_creation_date 2011-3-6
_audit_author_name 'David Dubbeldam'

_citation_author_name        'K.S. Park, Z. Ni, A.P. Cote, J.Y. Choi, R.D. Huang, F.J. Uribe-Romo, H.K. Chae, M. Oâ€™Keeffe, and O.M. Yaghi'
_citation_title              'Exceptional chemical and thermal stability of zeolitic imidazolate frameworks'
_citation_journal_abbrev     'P. Natl. Acad. Sci. USA'
_citation_journal_volume     103
_citation_journal_number     27
_citation_page_first         10186
_citation_page_last          10191
_citation_year               2006

_cell_length_a    27.0608
_cell_length_b    27.0608
_cell_length_c    19.406
_cell_angle_alpha 90
_cell_angle_beta  90
_cell_angle_gamma 90
_cell_volume      14210.8

_symmetry_cell_setting          tetragonal
_symmetry_space_group_name_Hall 'P 1'
_symmetry_space_group_name_H-M  'P 1'
_symmetry_Int_Tables_number     1

_symmetry_equiv_pos_as_xyz 'x,y,z'

loop_
_atom_site_label
_atom_site_type_symbol
_atom_site_fract_x
_atom_site_fract_y
_atom_site_fract_z
_atom_site_charge
C1       C      0.3671     0.1045     0.2279     0 
H1       H      0.3756     0.0732     0.2106     0 
C2       C      0.3282     0.1718     0.25       0 
H2       H      0.3036     0.1964     0.25       0 
C3       C      0.1874     0.1874     0.1477     0 
H3       H      0.1936     0.1936     0.1009     0 
C4       C      0.1918     0.1576     0.2479     0 
H4       H      0.2013     0.1386     0.2863     0 
C5A      C      0.2136     0.0255     0.2226     0 
H5A      H      0.1953     0.0464     0.2516     0 
C8A      C      0.3158     0.1635     0.0354     0 
H8A      H      0.3324     0.186      0.0641     0 
C6       C      0.2684     0          0.1521     0 
H6       H      0.299      0          0.1292     0 
C7       C      0.2654     0.1075     0          0 
H7       H      0.2379     0.0864     0          0 
N1       N      0.3242     0.13       0.2134     0 
N2       N      0.2114     0.1538     0.1832     0 
N3       N      0.2488     0.0409     0.1668     0 
N4       N      0.2861     0.1233     0.0571     0 
Zn1      Zn     0.26787    0.11096    0.15461    0 
C1       C      0.8955     0.3671     0.2279     0 
H1       H      0.9268     0.3756     0.2106     0 
C2       C      0.8282     0.3282     0.25       0 
H2       H      0.8036     0.3036     0.25       0 
C3       C      0.8126     0.1874     0.1477     0 
H3       H      0.8064     0.1936     0.1009     0 
C4       C      0.8424     0.1918     0.2479     0 
H4       H      0.8614     0.2013     0.2863     0 
C5A      C      0.9745     0.2136     0.2226     0 
H5A      H      0.9536     0.1953     0.2516     0 
C8B      C      0.8581     0.3327     0.0358     0 
H8B      H      0.8477     0.3586     0.0646     0 
C6       C      0          0.2684     0.1521     0 
H6       H      0          0.299      0.1292     0 
C7       C      0.8925     0.2654     0          0 
H7       H      0.9136     0.2379     0          0 
N1       N      0.87       0.3242     0.2134     0 
N2       N      0.8462     0.2114     0.1832     0 
N3       N      0.9591     0.2488     0.1668     0 
N4       N      0.8767     0.2861     0.0571     0 
Zn1      Zn     0.88904    0.26787    0.15461    0 
C1       C      0.6329     0.8955     0.2279     0 
H1       H      0.6244     0.9268     0.2106     0 
C2       C      0.6718     0.8282     0.25       0 
H2       H      0.6964     0.8036     0.25       0 
C3       C      0.8126     0.8126     0.1477     0 
H3       H      0.8064     0.8064     0.1009     0 
C4       C      0.8082     0.8424     0.2479     0 
H4       H      0.7987     0.8614     0.2863     0 
C5A      C      0.7864     0.9745     0.2226     0 
H5A      H      0.8047     0.9536     0.2516     0 
C8A      C      0.6842     0.8365     0.0354     0 
H8A      H      0.6676     0.814      0.0641     0 
C6       C      0.7316     0          0.1521     0 
H6       H      0.701      0          0.1292     0 
C7       C      0.7346     0.8925     0          0 
H7       H      0.7621     0.9136     0          0 
N1       N      0.6758     0.87       0.2134     0 
N2       N      0.7886     0.8462     0.1832     0 
N3       N      0.7512     0.9591     0.1668     0 
N4       N      0.7139     0.8767     0.0571     0 
Zn1      Zn     0.73213    0.88904    0.15461    0 
C1       C      0.1045     0.6329     0.2279     0 
H1       H      0.0732     0.6244     0.2106     0 
C2       C      0.1718     0.6718     0.25       0 
H2       H      0.1964     0.6964     0.25       0 
C3       C      0.1874     0.8126     0.1477     0 
H3       H      0.1936     0.8064     0.1009     0 
C4       C      0.1576     0.8082     0.2479     0 
H4       H      0.1386     0.7987     0.2863     0 
C5B      C      0.025      0.7991     0.1709     0 
H5B      H      0.0454     0.8272     0.1734     0 
C8B      C      0.1419     0.6673     0.0358     0 
H8B      H      0.1523     0.6414     0.0646     0 
C6       C      0          0.7316     0.1521     0 
H6       H      0          0.701      0.1292     0 
C7       C      0.1075     0.7346     0          0 
H7       H      0.0864     0.7621     0          0 
N1       N      0.13       0.6758     0.2134     0 
N2       N      0.1538     0.7886     0.1832     0 
N3       N      0.0409     0.7512     0.1668     0 
N4       N      0.1233     0.7139     0.0571     0 
Zn1      Zn     0.11096    0.73213    0.15461    0 
C1       C      0.3671     0.8955     0.7721     0 
H1       H      0.3756     0.9268     0.7894     0 
C2       C      0.3282     0.8282     0.75       0 
H2       H      0.3036     0.8036     0.75       0 
C3       C      0.1874     0.8126     0.8523     0 
H3       H      0.1936     0.8064     0.8991     0 
C4       C      0.1918     0.8424     0.7521     0 
H4       H      0.2013     0.8614     0.7137     0 
C5B      C      0.2009     0.975      0.8291     0 
H5B      H      0.1728     0.9546     0.8266     0 
C8A      C      0.3158     0.8365     0.9646     0 
H8A      H      0.3324     0.814      0.9359     0 
C6       C      0.2684     0          0.8479     0 
H6       H      0.299      0          0.8708     0 
C7       C      0.2654     0.8925     0          0 
H7       H      0.2379     0.9136     0          0 
N1       N      0.3242     0.87       0.7866     0 
N2       N      0.2114     0.8462     0.8168     0 
N3       N      0.2488     0.9591     0.8332     0 
N4       N      0.2861     0.8767     0.9429     0 
Zn1      Zn     0.26787    0.88904    0.84539    0 
C1       C      0.1045     0.3671     0.7721     0 
H1       H      0.0732     0.3756     0.7894     0 
C2       C      0.1718     0.3282     0.75       0 
H2       H      0.1964     0.3036     0.75       0 
C3       C      0.1874     0.1874     0.8523     0 
H3       H      0.1936     0.1936     0.8991     0 
C4       C      0.1576     0.1918     0.7521     0 
H4       H      0.1386     0.2013     0.7137     0 
C5A      C      0.0255     0.2136     0.7774     0 
H5A      H      0.0464     0.1953     0.7484     0 
C8B      C      0.1419     0.3327     0.9642     0 
H8B      H      0.1523     0.3586     0.9354     0 
C6       C      0          0.2684     0.8479     0 
H6       H      0          0.299      0.8708     0 
C7       C      0.1075     0.2654     0          0 
H7       H      0.0864     0.2379     0          0 
N1       N      0.13       0.3242     0.7866     0 
N2       N      0.1538     0.2114     0.8168     0 
N3       N      0.0409     0.2488     0.8332     0 
N4       N      0.1233     0.2861     0.9429     0 
Zn1      Zn     0.11096    0.26787    0.84539    0 
C1       C      0.6329     0.1045     0.7721     0 
H1       H      0.6244     0.0732     0.7894     0 
C2       C      0.6718     0.1718     0.75       0 
H2       H      0.6964     0.1964     0.75       0 
C3       C      0.8126     0.1874     0.8523     0 
H3       H      0.8064     0.1936     0.8991     0 
C4       C      0.8082     0.1576     0.7521     0 
H4       H      0.7987     0.1386     0.7137     0 
C5B      C      0.7991     0.025      0.8291     0 
H5B      H      0.8272     0.0454     0.8266     0 
C8B      C      0.6673     0.1419     0.9642     0 
H8B      H      0.6414     0.1523     0.9354     0 
C6       C      0.7316     0          0.8479     0 
H6       H      0.701      0          0.8708     0 
C7       C      0.7346     0.1075     0          0 
H7       H      0.7621     0.0864     0          0 
N1       N      0.6758     0.13       0.7866     0 
N2       N      0.7886     0.1538     0.8168     0 
N3       N      0.7512     0.0409     0.8332     0 
N4       N      0.7139     0.1233     0.9429     0 
Zn1      Zn     0.73213    0.11096    0.84539    0 
C1       C      0.8955     0.6329     0.7721     0 
H1       H      0.9268     0.6244     0.7894     0 
C2       C      0.8282     0.6718     0.75       0 
H2       H      0.8036     0.6964     0.75       0 
C3       C      0.8126     0.8126     0.8523     0 
H3       H      0.8064     0.8064     0.8991     0 
C4       C      0.8424     0.8082     0.7521     0 
H4       H      0.8614     0.7987     0.7137     0 
C5B      C      0.975      0.7991     0.8291     0 
H5B      H      0.9546     0.8272     0.8266     0 
C8A      C      0.8365     0.6842     0.9646     0 
H8A      H      0.814      0.6676     0.9359     0 
C6       C      0          0.7316     0.8479     0 
H6       H      0          0.701      0.8708     0 
C7       C      0.8925     0.7346     0          0 
H7       H      0.9136     0.7621     0          0 
N1       N      0.87       0.6758     0.7866     0 
N2       N      0.8462     0.7886     0.8168     0 
N3       N      0.9591     0.7512     0.8332     0 
N4       N      0.8767     0.7139     0.9429     0 
Zn1      Zn     0.88904    0.73213    0.84539    0 
C1       C      0.6329     0.8955     0.7721     0 
H1       H      0.6244     0.9268     0.7894     0 
C2       C      0.6718     0.8282     0.75       0 
H2       H      0.6964     0.8036     0.75       0 
C4       C      0.8082     0.8424     0.7521     0 
H4       H      0.7987     0.8614     0.7137     0 
C5B      C      0.7991     0.975      0.8291     0 
H5B      H      0.8272     0.9546     0.8266     0 
C8A      C      0.6842     0.8365     0.9646     0 
H8A      H      0.6676     0.814      0.9359     0 
N1       N      0.6758     0.87       0.7866     0 
N2       N      0.7886     0.8462     0.8168     0 
N3       N      0.7512     0.9591     0.8332     0 
N4       N      0.7139     0.8767     0.9429     0 
Zn1      Zn     0.73213    0.88904    0.84539    0 
C1       C      0.1045     0.6329     0.7721     0 
H1       H      0.0732     0.6244     0.7894     0 
C2       C      0.1718     0.6718     0.75       0 
H2       H      0.1964     0.6964     0.75       0 
C4       C      0.1576     0.8082     0.7521     0 
H4       H      0.1386     0.7987     0.7137     0 
C5B      C      0.025      0.7991     0.8291     0 
H5B      H      0.0454     0.8272     0.8266     0 
C8B      C      0.1419     0.6673     0.9642     0 
H8B      H      0.1523     0.6414     0.9354     0 
N1       N      0.13       0.6758     0.7866     0 
N2       N      0.1538     0.7886     0.8168     0 
N3       N      0.0409     0.7512     0.8332     0 
N4       N      0.1233     0.7139     0.9429     0 
Zn1      Zn     0.11096    0.73213    0.84539    0 
C1       C      0.3671     0.1045     0.7721     0 
H1       H      0.3756     0.0732     0.7894     0 
C2       C      0.3282     0.1718     0.75       0 
H2       H      0.3036     0.1964     0.75       0 
C4       C      0.1918     0.1576     0.7521     0 
H4       H      0.2013     0.1386     0.7137     0 
C5B      C      0.2009     0.025      0.8291     0 
H5B      H      0.1728     0.0454     0.8266     0 
C8A      C      0.3158     0.1635     0.9646     0 
H8A      H      0.3324     0.186      0.9359     0 
N1       N      0.3242     0.13       0.7866     0 
N2       N      0.2114     0.1538     0.8168     0 
N3       N      0.2488     0.0409     0.8332     0 
N4       N      0.2861     0.1233     0.9429     0 
Zn1      Zn     0.26787    0.11096    0.84539    0 
C1       C      0.8955     0.3671     0.7721     0 
H1       H      0.9268     0.3756     0.7894     0 
C2       C      0.8282     0.3282     0.75       0 
H2       H      0.8036     0.3036     0.75       0 
C4       C      0.8424     0.1918     0.7521     0 
H4       H      0.8614     0.2013     0.7137     0 
C5A      C      0.9745     0.2136     0.7774     0 
H5A      H      0.9536     0.1953     0.7484     0 
C8B      C      0.8581     0.3327     0.9642     0 
H8B      H      0.8477     0.3586     0.9354     0 
N1       N      0.87       0.3242     0.7866     0 
N2       N      0.8462     0.2114     0.8168     0 
N3       N      0.9591     0.2488     0.8332     0 
N4       N      0.8767     0.2861     0.9429     0 
Zn1      Zn     0.88904    0.26787    0.84539    0 
C1       C      0.6329     0.1045     0.2279     0 
H1       H      0.6244     0.0732     0.2106     0 
C2       C      0.6718     0.1718     0.25       0 
H2       H      0.6964     0.1964     0.25       0 
C4       C      0.8082     0.1576     0.2479     0 
H4       H      0.7987     0.1386     0.2863     0 
C5A      C      0.7864     0.0255     0.2226     0 
H5A      H      0.8047     0.0464     0.2516     0 
C8B      C      0.6673     0.1419     0.0358     0 
H8B      H      0.6414     0.1523     0.0646     0 
N1       N      0.6758     0.13       0.2134     0 
N2       N      0.7886     0.1538     0.1832     0 
N3       N      0.7512     0.0409     0.1668     0 
N4       N      0.7139     0.1233     0.0571     0 
Zn1      Zn     0.73213    0.11096    0.15461    0 
C1       C      0.8955     0.6329     0.2279     0 
H1       H      0.9268     0.6244     0.2106     0 
C2       C      0.8282     0.6718     0.25       0 
H2       H      0.8036     0.6964     0.25       0 
C4       C      0.8424     0.8082     0.2479     0 
H4       H      0.8614     0.7987     0.2863     0 
C5B      C      0.975      0.7991     0.1709     0 
H5B      H      0.9546     0.8272     0.1734     0 
C8A      C      0.8365     0.6842     0.0354     0 
H8A      H      0.814      0.6676     0.0641     0 
N1       N      0.87       0.6758     0.2134     0 
N2       N      0.8462     0.7886     0.1832     0 
N3       N      0.9591     0.7512     0.1668     0 
N4       N      0.8767     0.7139     0.0571     0 
Zn1      Zn     0.88904    0.73213    0.15461    0 
C1       C      0.3671     0.8955     0.2279     0 
H1       H      0.3756     0.9268     0.2106     0 
C2       C      0.3282     0.8282     0.25       0 
H2       H      0.3036     0.8036     0.25       0 
C4       C      0.1918     0.8424     0.2479     0 
H4       H      0.2013     0.8614     0.2863     0 
C5A      C      0.2136     0.9745     0.2226     0 
H5A      H      0.1953     0.9536     0.2516     0 
C8A      C      0.3158     0.8365     0.0354     0 
H8A      H      0.3324     0.814      0.0641     0 
N1       N      0.3242     0.87       0.2134     0 
N2       N      0.2114     0.8462     0.1832     0 
N3       N      0.2488     0.9591     0.1668     0 
N4       N      0.2861     0.8767     0.0571     0 
Zn1      Zn     0.26787    0.88904    0.15461    0 
C1       C      0.1045     0.3671     0.2279     0 
H1       H      0.0732     0.3756     0.2106     0 
C2       C      0.1718     0.3282     0.25       0 
H2       H      0.1964     0.3036     0.25       0 
C4       C      0.1576     0.1918     0.2479     0 
H4       H      0.1386     0.2013     0.2863     0 
C5A      C      0.0255     0.2136     0.2226     0 
H5A      H      0.0464     0.1953     0.2516     0 
C8B      C      0.1419     0.3327     0.0358     0 
H8B      H      0.1523     0.3586     0.0646     0 
N1       N      0.13       0.3242     0.2134     0 
N2       N      0.1538     0.2114     0.1832     0 
N3       N      0.0409     0.2488     0.1668     0 
N4       N      0.1233     0.2861     0.0571     0 
Zn1      Zn     0.11096    0.26787    0.15461    0 
C1       C      0.8671     0.6045     0.7279     0 
H1       H      0.8756     0.5732     0.7106     0 
C3       C      0.6874     0.6874     0.6477     0 
H3       H      0.6936     0.6936     0.6009     0 
C4       C      0.6918     0.6576     0.7479     0 
H4       H      0.7013     0.6386     0.7863     0 
C5B      C      0.7009     0.525      0.6709     0 
H5B      H      0.6728     0.5454     0.6734     0 
C8B      C      0.8327     0.6419     0.5358     0 
H8B      H      0.8586     0.6523     0.5646     0 
C6       C      0.7684     0.5        0.6521     0 
H6       H      0.799      0.5        0.6292     0 
C7       C      0.7654     0.6075     0.5        0 
H7       H      0.7379     0.5864     0.5        0 
N1       N      0.8242     0.63       0.7134     0 
N2       N      0.7114     0.6538     0.6832     0 
N3       N      0.7488     0.5409     0.6668     0 
N4       N      0.7861     0.6233     0.5571     0 
Zn1      Zn     0.76787    0.61096    0.65461    0 
C1       C      0.3955     0.8671     0.7279     0 
H1       H      0.4268     0.8756     0.7106     0 
C3       C      0.3126     0.6874     0.6477     0 
H3       H      0.3064     0.6936     0.6009     0 
C4       C      0.3424     0.6918     0.7479     0 
H4       H      0.3614     0.7013     0.7863     0 
C5B      C      0.475      0.7009     0.6709     0 
H5B      H      0.4546     0.6728     0.6734     0 
C8A      C      0.3365     0.8158     0.5354     0 
H8A      H      0.314      0.8324     0.5641     0 
C6       C      0.5        0.7684     0.6521     0 
H6       H      0.5        0.799      0.6292     0 
C7       C      0.3925     0.7654     0.5        0 
H7       H      0.4136     0.7379     0.5        0 
N1       N      0.37       0.8242     0.7134     0 
N2       N      0.3462     0.7114     0.6832     0 
N3       N      0.4591     0.7488     0.6668     0 
N4       N      0.3767     0.7861     0.5571     0 
Zn1      Zn     0.38904    0.76787    0.65461    0 
C1       C      0.1329     0.3955     0.7279     0 
H1       H      0.1244     0.4268     0.7106     0 
C3       C      0.3126     0.3126     0.6477     0 
H3       H      0.3064     0.3064     0.6009     0 
C4       C      0.3082     0.3424     0.7479     0 
H4       H      0.2987     0.3614     0.7863     0 
C5A      C      0.2864     0.4745     0.7226     0 
H5A      H      0.3047     0.4536     0.7516     0 
C8A      C      0.1842     0.3365     0.5354     0 
H8A      H      0.1676     0.314      0.5641     0 
C6       C      0.2316     0.5        0.6521     0 
H6       H      0.201      0.5        0.6292     0 
C7       C      0.2346     0.3925     0.5        0 
H7       H      0.2621     0.4136     0.5        0 
N1       N      0.1758     0.37       0.7134     0 
N2       N      0.2886     0.3462     0.6832     0 
N3       N      0.2512     0.4591     0.6668     0 
N4       N      0.2139     0.3767     0.5571     0 
Zn1      Zn     0.23213    0.38904    0.65461    0 
C1       C      0.6045     0.1329     0.7279     0 
H1       H      0.5732     0.1244     0.7106     0 
C3       C      0.6874     0.3126     0.6477     0 
H3       H      0.6936     0.3064     0.6009     0 
C4       C      0.6576     0.3082     0.7479     0 
H4       H      0.6386     0.2987     0.7863     0 
C5B      C      0.525      0.2991     0.6709     0 
H5B      H      0.5454     0.3272     0.6734     0 
C8A      C      0.6635     0.1842     0.5354     0 
H8A      H      0.686      0.1676     0.5641     0 
C6       C      0.5        0.2316     0.6521     0 
H6       H      0.5        0.201      0.6292     0 
C7       C      0.6075     0.2346     0.5        0 
H7       H      0.5864     0.2621     0.5        0 
N1       N      0.63       0.1758     0.7134     0 
N2       N      0.6538     0.2886     0.6832     0 
N3       N      0.5409     0.2512     0.6668     0 
N4       N      0.6233     0.2139     0.5571     0 
Zn1      Zn     0.61096    0.23213    0.65461    0 
C1       C      0.8671     0.3955     0.2721     0 
H1       H      0.8756     0.4268     0.2894     0 
C3       C      0.6874     0.3126     0.3523     0 
H3       H      0.6936     0.3064     0.3991     0 
C4       C      0.6918     0.3424     0.2521     0 
H4       H      0.7013     0.3614     0.2137     0 
C5A      C      0.7136     0.4745     0.2774     0 
H5A      H      0.6953     0.4536     0.2484     0 
C8B      C      0.8327     0.3581     0.4642     0 
H8B      H      0.8586     0.3477     0.4354     0 
C6       C      0.7684     0.5        0.3479     0 
H6       H      0.799      0.5        0.3708     0 
C7       C      0.7654     0.3925     0.5        0 
H7       H      0.7379     0.4136     0.5        0 
N1       N      0.8242     0.37       0.2866     0 
N2       N      0.7114     0.3462     0.3168     0 
N3       N      0.7488     0.4591     0.3332     0 
N4       N      0.7861     0.3767     0.4429     0 
Zn1      Zn     0.76787    0.38904    0.34539    0 
C1       C      0.6045     0.8671     0.2721     0 
H1       H      0.5732     0.8756     0.2894     0 
C3       C      0.6874     0.6874     0.3523     0 
H3       H      0.6936     0.6936     0.3991     0 
C4       C      0.6576     0.6918     0.2521     0 
H4       H      0.6386     0.7013     0.2137     0 
C5B      C      0.525      0.7009     0.3291     0 
H5B      H      0.5454     0.6728     0.3266     0 
C8A      C      0.6635     0.8158     0.4646     0 
H8A      H      0.686      0.8324     0.4359     0 
C6       C      0.5        0.7684     0.3479     0 
H6       H      0.5        0.799      0.3708     0 
C7       C      0.6075     0.7654     0.5        0 
H7       H      0.5864     0.7379     0.5        0 
N1       N      0.63       0.8242     0.2866     0 
N2       N      0.6538     0.7114     0.3168     0 
N3       N      0.5409     0.7488     0.3332     0 
N4       N      0.6233     0.7861     0.4429     0 
Zn1      Zn     0.61096    0.76787    0.34539    0 
C1       C      0.1329     0.6045     0.2721     0 
H1       H      0.1244     0.5732     0.2894     0 
C3       C      0.3126     0.6874     0.3523     0 
H3       H      0.3064     0.6936     0.3991     0 
C4       C      0.3082     0.6576     0.2521     0 
H4       H      0.2987     0.6386     0.2137     0 
C5B      C      0.2991     0.525      0.3291     0 
H5B      H      0.3272     0.5454     0.3266     0 
C8A      C      0.1842     0.6635     0.4646     0 
H8A      H      0.1676     0.686      0.4359     0 
C6       C      0.2316     0.5        0.3479     0 
H6       H      0.201      0.5        0.3708     0 
C7       C      0.2346     0.6075     0.5        0 
H7       H      0.2621     0.5864     0.5        0 
N1       N      0.1758     0.63       0.2866     0 
N2       N      0.2886     0.6538     0.3168     0 
N3       N      0.2512     0.5409     0.3332     0 
N4       N      0.2139     0.6233     0.4429     0 
Zn1      Zn     0.23213    0.61096    0.34539    0 
C1       C      0.3955     0.1329     0.2721     0 
H1       H      0.4268     0.1244     0.2894     0 
C3       C      0.3126     0.3126     0.3523     0 
H3       H      0.3064     0.3064     0.3991     0 
C4       C      0.3424     0.3082     0.2521     0 
H4       H      0.3614     0.2987     0.2137     0 
C5A      C      0.4745     0.2864     0.2774     0 
H5A      H      0.4536     0.3047     0.2484     0 
C8B      C      0.3581     0.1673     0.4642     0 
H8B      H      0.3477     0.1414     0.4354     0 
C6       C      0.5        0.2316     0.3479     0 
H6       H      0.5        0.201      0.3708     0 
C7       C      0.3925     0.2346     0.5        0 
H7       H      0.4136     0.2621     0.5        0 
N1       N      0.37       0.1758     0.2866     0 
N2       N      0.3462     0.2886     0.3168     0 
N3       N      0.4591     0.2512     0.3332     0 
N4       N      0.3767     0.2139     0.4429     0 
Zn1      Zn     0.38904    0.23213    0.34539    0 
C1       C      0.1329     0.3955     0.2721     0 
H1       H      0.1244     0.4268     0.2894     0 
C4       C      0.3082     0.3424     0.2521     0 
H4       H      0.2987     0.3614     0.2137     0 
C5B      C      0.2991     0.475      0.3291     0 
H5B      H      0.3272     0.4546     0.3266     0 
C8A      C      0.1842     0.3365     0.4646     0 
H8A      H      0.1676     0.314      0.4359     0 
N1       N      0.1758     0.37       0.2866     0 
N2       N      0.2886     0.3462     0.3168     0 
N3       N      0.2512     0.4591     0.3332     0 
N4       N      0.2139     0.3767     0.4429     0 
Zn1      Zn     0.23213    0.38904    0.34539    0 
C1       C      0.6045     0.1329     0.2721     0 
H1       H      0.5732     0.1244     0.2894     0 
C4       C      0.6576     0.3082     0.2521     0 
H4       H      0.6386     0.2987     0.2137     0 
C5A      C      0.5255     0.2864     0.2774     0 
H5A      H      0.5464     0.3047     0.2484     0 
C8A      C      0.6635     0.1842     0.4646     0 
H8A      H      0.686      0.1676     0.4359     0 
N1       N      0.63       0.1758     0.2866     0 
N2       N      0.6538     0.2886     0.3168     0 
N3       N      0.5409     0.2512     0.3332     0 
N4       N      0.6233     0.2139     0.4429     0 
Zn1      Zn     0.61096    0.23213    0.34539    0 
C1       C      0.8671     0.6045     0.2721     0 
H1       H      0.8756     0.5732     0.2894     0 
C4       C      0.6918     0.6576     0.2521     0 
H4       H      0.7013     0.6386     0.2137     0 
C5A      C      0.7136     0.5255     0.2774     0 
H5A      H      0.6953     0.5464     0.2484     0 
C8B      C      0.8327     0.6419     0.4642     0 
H8B      H      0.8586     0.6523     0.4354     0 
N1       N      0.8242     0.63       0.2866     0 
N2       N      0.7114     0.6538     0.3168     0 
N3       N      0.7488     0.5409     0.3332     0 
N4       N      0.7861     0.6233     0.4429     0 
Zn1      Zn     0.76787    0.61096    0.34539    0 
C1       C      0.3955     0.8671     0.2721     0 
H1       H      0.4268     0.8756     0.2894     0 
C4       C      0.3424     0.6918     0.2521     0 
H4       H      0.3614     0.7013     0.2137     0 
C5B      C      0.475      0.7009     0.3291     0 
H5B      H      0.4546     0.6728     0.3266     0 
C8A      C      0.3365     0.8158     0.4646     0 
H8A      H      0.314      0.8324     0.4359     0 
N1       N      0.37       0.8242     0.2866     0 
N2       N      0.3462     0.7114     0.3168     0 
N3       N      0.4591     0.7488     0.3332     0 
N4       N      0.3767     0.7861     0.4429     0 
Zn1      Zn     0.38904    0.76787    0.34539    0 
C1       C      0.1329     0.6045     0.7279     0 
H1       H      0.1244     0.5732     0.7106     0 
C4       C      0.3082     0.6576     0.7479     0 
H4       H      0.2987     0.6386     0.7863     0 
C5A      C      0.2864     0.5255     0.7226     0 
H5A      H      0.3047     0.5464     0.7516     0 
C8A      C      0.1842     0.6635     0.5354     0 
H8A      H      0.1676     0.686      0.5641     0 
N1       N      0.1758     0.63       0.7134     0 
N2       N      0.2886     0.6538     0.6832     0 
N3       N      0.2512     0.5409     0.6668     0 
N4       N      0.2139     0.6233     0.5571     0 
Zn1      Zn     0.23213    0.61096    0.65461    0 
C1       C      0.3955     0.1329     0.7279     0 
H1       H      0.4268     0.1244     0.7106     0 
C4       C      0.3424     0.3082     0.7479     0 
H4       H      0.3614     0.2987     0.7863     0 
C5B      C      0.475      0.2991     0.6709     0 
H5B      H      0.4546     0.3272     0.6734     0 
C8B      C      0.3581     0.1673     0.5358     0 
H8B      H      0.3477     0.1414     0.5646     0 
N1       N      0.37       0.1758     0.7134     0 
N2       N      0.3462     0.2886     0.6832     0 
N3       N      0.4591     0.2512     0.6668     0 
N4       N      0.3767     0.2139     0.5571     0 
Zn1      Zn     0.38904    0.23213    0.65461    0 
C1       C      0.8671     0.3955     0.7279     0 
H1       H      0.8756     0.4268     0.7106     0 
C4       C      0.6918     0.3424     0.7479     0 
H4       H      0.7013     0.3614     0.7863     0 
C5B      C      0.7009     0.475      0.6709     0 
H5B      H      0.6728     0.4546     0.6734     0 
C8B      C      0.8327     0.3581     0.5358     0 
H8B      H      0.8586     0.3477     0.5646     0 
N1       N      0.8242     0.37       0.7134     0 
N2       N      0.7114     0.3462     0.6832     0 
N3       N      0.7488     0.4591     0.6668     0 
N4       N      0.7861     0.3767     0.5571     0 
Zn1      Zn     0.76787    0.38904    0.65461    0 
C1       C      0.6045     0.8671     0.7279     0 
H1       H      0.5732     0.8756     0.7106     0 
C4       C      0.6576     0.6918     0.7479     0 
H4       H      0.6386     0.7013     0.7863     0 
C5B      C      0.525      0.7009     0.6709     0 
H5B      H      0.5454     0.6728     0.6734     0 
C8A      C      0.6635     0.8158     0.5354     0 
H8A      H      0.686      0.8324     0.5641     0 
N1       N      0.63       0.8242     0.7134     0 
N2       N      0.6538     0.7114     0.6832     0 
N3       N      0.5409     0.7488     0.6668     0 
N4       N      0.6233     0.7861     0.5571     0 
Zn1      Zn     0.61096    0.76787    0.65461    0 


