data_ZnHBDC

_citation_author_name        'Y. Ling, Z.-X. Chen, F.-P. Zhai, Y.-M. Zhou, L.-H. Weng, and D.-Y. Zhao',
_citation_title              'A zinc(II) metal-organic framework based on triazole and dicarboxylate ligands for selective adsorption of hexane isomers'
_citation_journal_abbrev     'Chem. Comm.'
_citation_journal_volume     47
_citation_page_first         7197
_citation_page_last          7199
_citation_year               2011


_audit_creation_method RASPA-1.0
_audit_creation_date 2011-11-14
_audit_author_name 'David Dubbeldam'

_cell_length_a    21.222
_cell_length_b    17.716
_cell_length_c    14.376
_cell_angle_alpha 90
_cell_angle_beta  127.821
_cell_angle_gamma 90
_cell_volume      4269.52

_symmetry_cell_setting          monoclinic
_symmetry_space_group_name_Hall '-C 2y'
_symmetry_space_group_name_H-M  'C 1 2/m 1'
_symmetry_Int_Tables_number     12

loop_
_symmetry_equiv_pos_as_xyz
 'x,y,z'
 '-x,y,-z'
 '-x,-y,-z'
 'x,-y,z'
 'x+1/2,y+1/2,z'
 '-x+1/2,y+1/2,-z'
 '-x+1/2,-y+1/2,-z'
 'x+1/2,-y+1/2,z'

loop_
_atom_site_label
_atom_site_type_symbol
_atom_site_fract_x
_atom_site_fract_y
_atom_site_fract_z
Zn1      Zn    0.48066      0.5          1.08497   
Zn2      Zn    0            0.10439      0.5       
N1       N     0.4722       0.5          1.2177    
N2       N     0.487        0.462        1.3759    
O1       O     0.4002       0.4223       0.9718    
O2       O     0.4322       0.4201       0.8509    
O3       O     0.0903       0.173        0.5924    
O4       O     0.1483       0.1374       0.5232    
H1       H     0.1658       0.0917       0.541     
C1       C     0.3917       0.3992       0.8825    
C2       C     0.3269       0.3413       0.8067    
C3       C     0.274        0.3225       0.8245    
H3       H     0.2765       0.3458       0.8847    
C4       C     0.2152       0.2688       0.7544    
H4       H     0.181        0.2551       0.7715    
C5       C     0.2066       0.2364       0.6638    
C6       C     0.2649       0.251        0.6511    
H6       H     0.2653       0.2237       0.5963    
C7       C     0.3217       0.3047       0.7173    
H7       H     0.3573       0.3168       0.7022    
C8       C     0.1416       0.1801       0.5851    
C9       C     0.4771       0.4402       1.279     
C10      C     0.4719       0.3605       1.2431    
H10      H     0.5176       0.3332       1.3064    
H11      H     0.4704       0.3588       1.175     
H12      H     0.4243       0.3379       1.2245    


