data_Zr-TPDC

_audit_creation_method RASPA-1.0
_audit_creation_date 2012-1-7
_audit_author_name 'David Dubbeldam'

_citation_author_name        'A. Schaate, P. Roy, A. Godt, J. Lippke, F. Waltz, M. Wiebcke, and P. Behrens'
_citation_title              'Modulated Synthesis of Zr-Based Metal-Organic Frameworks: From Nano to Single Crystals'
_citation_journal_abbrev     'Chem. Eur. J.'
_citation_journal_volume     17
_citation_page_first         6643
_citation_page_last          6651
_citation_year               2011

_cell_length_a    32.7767
_cell_length_b    32.7767
_cell_length_c    32.7767
_cell_angle_alpha 90
_cell_angle_beta  90
_cell_angle_gamma 90
_cell_volume      35212.4

_symmetry_cell_setting          triclinic
_symmetry_space_group_name_Hall 'P 1'
_symmetry_space_group_name_H-M  'P 1'
_symmetry_Int_Tables_number     1

_symmetry_equiv_pos_as_xyz 'x,y,z'

loop_
_atom_site_label
_atom_site_type_symbol
_atom_site_fract_x
_atom_site_fract_y
_atom_site_fract_z
_atom_site_charge
C7       C     0.967        0.717        0.7516       0
C7       C     0.467        0.217        0.7516       0
C7       C     0.467        0.717        0.2516       0
C7       C     0.033        0.783        0.2516       0
C7       C     0.533        0.783        0.7516       0
C7       C     0.533        0.283        0.2516       0
C7       C     0.033        0.217        0.7484       0
C7       C     0.967        0.283        0.2484       0
C7       C     0.7516       0.967        0.717        0
C7       C     0.7516       0.467        0.217        0
C7       C     0.7516       0.033        0.283        0
C7       C     0.7484       0.533        0.717        0
C7       C     0.2484       0.033        0.717        0
C7       C     0.2484       0.533        0.217        0
C7       C     0.2484       0.967        0.283        0
C7       C     0.2484       0.467        0.783        0
C7       C     0.717        0.7516       0.967        0
C7       C     0.783        0.7516       0.533        0
C7       C     0.283        0.7516       0.033        0
C7       C     0.217        0.2484       0.533        0
C7       C     0.717        0.2484       0.033        0
C7       C     0.783        0.2484       0.467        0
C7       C     0.283        0.7484       0.467        0
C7       C     0.283        0.2484       0.967        0
C7       C     0.717        0.967        0.2484       0
C7       C     0.283        0.033        0.2484       0
C7       C     0.283        0.533        0.7484       0
C7       C     0.717        0.033        0.7516       0
C7       C     0.717        0.533        0.2516       0
C7       C     0.783        0.467        0.7516       0
C7       C     0.283        0.967        0.7516       0
C7       C     0.283        0.467        0.2516       0
C7       C     0.967        0.2516       0.783        0
C7       C     0.033        0.7516       0.717        0
C7       C     0.533        0.2516       0.717        0
C7       C     0.533        0.7516       0.217        0
C7       C     0.033        0.2484       0.283        0
C7       C     0.967        0.7484       0.217        0
C7       C     0.467        0.7484       0.717        0
C7       C     0.467        0.2484       0.217        0
C7       C     0.7516       0.717        0.033        0
C7       C     0.2516       0.283        0.467        0
C7       C     0.7516       0.283        0.967        0
C7       C     0.7484       0.717        0.467        0
C7       C     0.2484       0.717        0.967        0
C7       C     0.7484       0.283        0.533        0
C7       C     0.2484       0.783        0.533        0
C7       C     0.2484       0.283        0.033        0
C7       C     0.033        0.783        0.7484       0
C7       C     0.533        0.783        0.2484       0
C7       C     0.533        0.283        0.7484       0
C7       C     0.967        0.717        0.2484       0
C7       C     0.467        0.217        0.2484       0
C7       C     0.467        0.717        0.7484       0
C7       C     0.967        0.283        0.7516       0
C7       C     0.033        0.217        0.2516       0
C7       C     0.7484       0.033        0.783        0
C7       C     0.7484       0.533        0.283        0
C7       C     0.7484       0.967        0.217        0
C7       C     0.2516       0.967        0.783        0
C7       C     0.2516       0.467        0.283        0
C7       C     0.7516       0.467        0.783        0
C7       C     0.2516       0.033        0.217        0
C7       C     0.2516       0.533        0.717        0
C7       C     0.783        0.7484       0.033        0
C7       C     0.217        0.7484       0.967        0
C7       C     0.717        0.7484       0.467        0
C7       C     0.783        0.2516       0.967        0
C7       C     0.283        0.2516       0.467        0
C7       C     0.217        0.2516       0.033        0
C7       C     0.217        0.7516       0.533        0
C7       C     0.717        0.2516       0.533        0
C7       C     0.783        0.033        0.2516       0
C7       C     0.217        0.967        0.2516       0
C7       C     0.217        0.467        0.7516       0
C7       C     0.783        0.967        0.7484       0
C7       C     0.783        0.467        0.2484       0
C7       C     0.217        0.033        0.7484       0
C7       C     0.217        0.533        0.2484       0
C7       C     0.717        0.533        0.7484       0
C7       C     0.033        0.2484       0.717        0
C7       C     0.967        0.7484       0.783        0
C7       C     0.467        0.7484       0.283        0
C7       C     0.467        0.2484       0.783        0
C7       C     0.967        0.2516       0.217        0
C7       C     0.033        0.7516       0.283        0
C7       C     0.533        0.2516       0.283        0
C7       C     0.533        0.7516       0.783        0
C7       C     0.7484       0.783        0.967        0
C7       C     0.7484       0.217        0.033        0
C7       C     0.2484       0.217        0.533        0
C7       C     0.2516       0.783        0.033        0
C7       C     0.7516       0.783        0.533        0
C7       C     0.2516       0.217        0.967        0
C7       C     0.2516       0.717        0.467        0
C7       C     0.7516       0.217        0.467        0
Zr1      Zr    0            0            0.0755       0
Zr1      Zr    0            0.5          0.5755       0
Zr1      Zr    0.5          0            0.5755       0
Zr1      Zr    0.5          0.5          0.0755       0
Zr1      Zr    0            0            0.9245       0
Zr1      Zr    0            0.5          0.4245       0
Zr1      Zr    0.5          0            0.4245       0
Zr1      Zr    0.5          0.5          0.9245       0
Zr1      Zr    0.0755       0            0            0
Zr1      Zr    0.0755       0.5          0.5          0
Zr1      Zr    0.5755       0            0.5          0
Zr1      Zr    0.5755       0.5          0            0
Zr1      Zr    0.9245       0            0            0
Zr1      Zr    0.9245       0.5          0.5          0
Zr1      Zr    0.4245       0            0.5          0
Zr1      Zr    0.4245       0.5          0            0
Zr1      Zr    0            0.0755       0            0
Zr1      Zr    0            0.5755       0.5          0
Zr1      Zr    0.5          0.0755       0.5          0
Zr1      Zr    0.5          0.5755       0            0
Zr1      Zr    0            0.9245       0            0
Zr1      Zr    0            0.4245       0.5          0
Zr1      Zr    0.5          0.9245       0.5          0
Zr1      Zr    0.5          0.4245       0            0
O2       O     0.03714      0.03714      0.03714      0
O2       O     0.03714      0.53714      0.53714      0
O2       O     0.53714      0.03714      0.53714      0
O2       O     0.53714      0.53714      0.03714      0
O2       O     0.96286      0.96286      0.03714      0
O2       O     0.96286      0.46286      0.53714      0
O2       O     0.46286      0.96286      0.53714      0
O2       O     0.46286      0.46286      0.03714      0
O2       O     0.96286      0.03714      0.96286      0
O2       O     0.96286      0.53714      0.46286      0
O2       O     0.46286      0.03714      0.46286      0
O2       O     0.46286      0.53714      0.96286      0
O2       O     0.03714      0.96286      0.96286      0
O2       O     0.03714      0.46286      0.46286      0
O2       O     0.53714      0.96286      0.46286      0
O2       O     0.53714      0.46286      0.96286      0
O2       O     0.03714      0.03714      0.96286      0
O2       O     0.03714      0.53714      0.46286      0
O2       O     0.53714      0.03714      0.46286      0
O2       O     0.53714      0.53714      0.96286      0
O2       O     0.96286      0.96286      0.96286      0
O2       O     0.96286      0.46286      0.46286      0
O2       O     0.46286      0.96286      0.46286      0
O2       O     0.46286      0.46286      0.96286      0
O2       O     0.03714      0.96286      0.03714      0
O2       O     0.03714      0.46286      0.53714      0
O2       O     0.53714      0.96286      0.53714      0
O2       O     0.53714      0.46286      0.03714      0
O2       O     0.96286      0.03714      0.03714      0
O2       O     0.96286      0.53714      0.53714      0
O2       O     0.46286      0.03714      0.53714      0
O2       O     0.46286      0.53714      0.03714      0
O1       O     0            0.05929      0.10832      0
C3       C     0            0.16808      0.11696      0
H1       H     0            0.17696      0.08333      0
C4       C     0            0.19799      0.1473       0
H2       H     0            0.23165      0.13854      0
O1       O     0            0.55929      0.60832      0
C3       C     0            0.66808      0.61696      0
H1       H     0            0.67696      0.58333      0
C4       C     0            0.69799      0.6473       0
H2       H     0            0.73165      0.63854      0
O1       O     0.5          0.05929      0.60832      0
C3       C     0.5          0.16808      0.61696      0
H1       H     0.5          0.17696      0.58333      0
C4       C     0.5          0.19799      0.6473       0
H2       H     0.5          0.23165      0.63854      0
O1       O     0.5          0.55929      0.10832      0
C3       C     0.5          0.66808      0.11696      0
H1       H     0.5          0.67696      0.08333      0
C4       C     0.5          0.69799      0.1473       0
H2       H     0.5          0.73165      0.13854      0
O1       O     0            0.94071      0.10832      0
C3       C     0            0.83192      0.11696      0
H1       H     0            0.82304      0.08333      0
C4       C     0            0.80201      0.1473       0
H2       H     0            0.76835      0.13854      0
O1       O     0            0.44071      0.60832      0
C3       C     0            0.33192      0.61696      0
H1       H     0            0.32304      0.58333      0
C4       C     0            0.30201      0.6473       0
H2       H     0            0.26835      0.63854      0
O1       O     0.5          0.94071      0.60832      0
C3       C     0.5          0.83192      0.61696      0
H1       H     0.5          0.82304      0.58333      0
C4       C     0.5          0.80201      0.6473       0
H2       H     0.5          0.76835      0.63854      0
O1       O     0.5          0.44071      0.10832      0
C3       C     0.5          0.33192      0.11696      0
H1       H     0.5          0.32304      0.08333      0
C4       C     0.5          0.30201      0.1473       0
H2       H     0.5          0.26835      0.13854      0
O1       O     0            0.05929      0.89168      0
C3       C     0            0.16808      0.88304      0
H1       H     0            0.17696      0.91667      0
C4       C     0            0.19799      0.8527       0
H2       H     0            0.23165      0.86146      0
O1       O     0            0.55929      0.39168      0
C3       C     0            0.66808      0.38304      0
H1       H     0            0.67696      0.41667      0
C4       C     0            0.69799      0.3527       0
H2       H     0            0.73165      0.36146      0
O1       O     0.5          0.05929      0.39168      0
C3       C     0.5          0.16808      0.38304      0
H1       H     0.5          0.17696      0.41667      0
C4       C     0.5          0.19799      0.3527       0
H2       H     0.5          0.23165      0.36146      0
O1       O     0.5          0.55929      0.89168      0
C3       C     0.5          0.66808      0.88304      0
H1       H     0.5          0.67696      0.91667      0
C4       C     0.5          0.69799      0.8527       0
H2       H     0.5          0.73165      0.86146      0
O1       O     0            0.94071      0.89168      0
C3       C     0            0.83192      0.88304      0
H1       H     0            0.82304      0.91667      0
C4       C     0            0.80201      0.8527       0
H2       H     0            0.76835      0.86146      0
O1       O     0            0.44071      0.39168      0
C3       C     0            0.33192      0.38304      0
H1       H     0            0.32304      0.41667      0
C4       C     0            0.30201      0.3527       0
H2       H     0            0.26835      0.36146      0
O1       O     0.5          0.94071      0.39168      0
C3       C     0.5          0.83192      0.38304      0
H1       H     0.5          0.82304      0.41667      0
C4       C     0.5          0.80201      0.3527       0
H2       H     0.5          0.76835      0.36146      0
O1       O     0.5          0.44071      0.89168      0
C3       C     0.5          0.33192      0.88304      0
H1       H     0.5          0.32304      0.91667      0
C4       C     0.5          0.30201      0.8527       0
H2       H     0.5          0.26835      0.86146      0
O1       O     0.10832      0            0.05929      0
C3       C     0.11696      0            0.16808      0
H1       H     0.08333      0            0.17696      0
C4       C     0.1473       0            0.19799      0
H2       H     0.13854      0            0.23165      0
O1       O     0.10832      0.5          0.55929      0
C3       C     0.11696      0.5          0.66808      0
H1       H     0.08333      0.5          0.67696      0
C4       C     0.1473       0.5          0.69799      0
H2       H     0.13854      0.5          0.73165      0
O1       O     0.60832      0            0.55929      0
C3       C     0.61696      0            0.66808      0
H1       H     0.58333      0            0.67696      0
C4       C     0.6473       0            0.69799      0
H2       H     0.63854      0            0.73165      0
O1       O     0.60832      0.5          0.05929      0
C3       C     0.61696      0.5          0.16808      0
H1       H     0.58333      0.5          0.17696      0
C4       C     0.6473       0.5          0.19799      0
H2       H     0.63854      0.5          0.23165      0
O1       O     0.10832      0            0.94071      0
C3       C     0.11696      0            0.83192      0
H1       H     0.08333      0            0.82304      0
C4       C     0.1473       0            0.80201      0
H2       H     0.13854      0            0.76835      0
O1       O     0.10832      0.5          0.44071      0
C3       C     0.11696      0.5          0.33192      0
H1       H     0.08333      0.5          0.32304      0
C4       C     0.1473       0.5          0.30201      0
H2       H     0.13854      0.5          0.26835      0
O1       O     0.60832      0            0.44071      0
C3       C     0.61696      0            0.33192      0
H1       H     0.58333      0            0.32304      0
C4       C     0.6473       0            0.30201      0
H2       H     0.63854      0            0.26835      0
O1       O     0.60832      0.5          0.94071      0
C3       C     0.61696      0.5          0.83192      0
H1       H     0.58333      0.5          0.82304      0
C4       C     0.6473       0.5          0.80201      0
H2       H     0.63854      0.5          0.76835      0
O1       O     0.89168      0            0.05929      0
C3       C     0.88304      0            0.16808      0
H1       H     0.91667      0            0.17696      0
C4       C     0.8527       0            0.19799      0
H2       H     0.86146      0            0.23165      0
O1       O     0.89168      0.5          0.55929      0
C3       C     0.88304      0.5          0.66808      0
H1       H     0.91667      0.5          0.67696      0
C4       C     0.8527       0.5          0.69799      0
H2       H     0.86146      0.5          0.73165      0
O1       O     0.39168      0            0.55929      0
C3       C     0.38304      0            0.66808      0
H1       H     0.41667      0            0.67696      0
C4       C     0.3527       0            0.69799      0
H2       H     0.36146      0            0.73165      0
O1       O     0.39168      0.5          0.05929      0
C3       C     0.38304      0.5          0.16808      0
H1       H     0.41667      0.5          0.17696      0
C4       C     0.3527       0.5          0.19799      0
H2       H     0.36146      0.5          0.23165      0
O1       O     0.89168      0            0.94071      0
C3       C     0.88304      0            0.83192      0
H1       H     0.91667      0            0.82304      0
C4       C     0.8527       0            0.80201      0
H2       H     0.86146      0            0.76835      0
O1       O     0.89168      0.5          0.44071      0
C3       C     0.88304      0.5          0.33192      0
H1       H     0.91667      0.5          0.32304      0
C4       C     0.8527       0.5          0.30201      0
H2       H     0.86146      0.5          0.26835      0
O1       O     0.39168      0            0.44071      0
C3       C     0.38304      0            0.33192      0
H1       H     0.41667      0            0.32304      0
C4       C     0.3527       0            0.30201      0
H2       H     0.36146      0            0.26835      0
O1       O     0.39168      0.5          0.94071      0
C3       C     0.38304      0.5          0.83192      0
H1       H     0.41667      0.5          0.82304      0
C4       C     0.3527       0.5          0.80201      0
H2       H     0.36146      0.5          0.76835      0
O1       O     0.05929      0.10832      0            0
C3       C     0.16808      0.11696      0            0
H1       H     0.17696      0.08333      0            0
C4       C     0.19799      0.1473       0            0
H2       H     0.23165      0.13854      0            0
O1       O     0.05929      0.60832      0.5          0
C3       C     0.16808      0.61696      0.5          0
H1       H     0.17696      0.58333      0.5          0
C4       C     0.19799      0.6473       0.5          0
H2       H     0.23165      0.63854      0.5          0
O1       O     0.55929      0.10832      0.5          0
C3       C     0.66808      0.11696      0.5          0
H1       H     0.67696      0.08333      0.5          0
C4       C     0.69799      0.1473       0.5          0
H2       H     0.73165      0.13854      0.5          0
O1       O     0.55929      0.60832      0            0
C3       C     0.66808      0.61696      0            0
H1       H     0.67696      0.58333      0            0
C4       C     0.69799      0.6473       0            0
H2       H     0.73165      0.63854      0            0
O1       O     0.94071      0.10832      0            0
C3       C     0.83192      0.11696      0            0
H1       H     0.82304      0.08333      0            0
C4       C     0.80201      0.1473       0            0
H2       H     0.76835      0.13854      0            0
O1       O     0.94071      0.60832      0.5          0
C3       C     0.83192      0.61696      0.5          0
H1       H     0.82304      0.58333      0.5          0
C4       C     0.80201      0.6473       0.5          0
H2       H     0.76835      0.63854      0.5          0
O1       O     0.44071      0.10832      0.5          0
C3       C     0.33192      0.11696      0.5          0
H1       H     0.32304      0.08333      0.5          0
C4       C     0.30201      0.1473       0.5          0
H2       H     0.26835      0.13854      0.5          0
O1       O     0.44071      0.60832      0            0
C3       C     0.33192      0.61696      0            0
H1       H     0.32304      0.58333      0            0
C4       C     0.30201      0.6473       0            0
H2       H     0.26835      0.63854      0            0
O1       O     0.05929      0.89168      0            0
C3       C     0.16808      0.88304      0            0
H1       H     0.17696      0.91667      0            0
C4       C     0.19799      0.8527       0            0
H2       H     0.23165      0.86146      0            0
O1       O     0.05929      0.39168      0.5          0
C3       C     0.16808      0.38304      0.5          0
H1       H     0.17696      0.41667      0.5          0
C4       C     0.19799      0.3527       0.5          0
H2       H     0.23165      0.36146      0.5          0
O1       O     0.55929      0.89168      0.5          0
C3       C     0.66808      0.88304      0.5          0
H1       H     0.67696      0.91667      0.5          0
C4       C     0.69799      0.8527       0.5          0
H2       H     0.73165      0.86146      0.5          0
O1       O     0.55929      0.39168      0            0
C3       C     0.66808      0.38304      0            0
H1       H     0.67696      0.41667      0            0
C4       C     0.69799      0.3527       0            0
H2       H     0.73165      0.36146      0            0
O1       O     0.94071      0.89168      0            0
C3       C     0.83192      0.88304      0            0
H1       H     0.82304      0.91667      0            0
C4       C     0.80201      0.8527       0            0
H2       H     0.76835      0.86146      0            0
O1       O     0.94071      0.39168      0.5          0
C3       C     0.83192      0.38304      0.5          0
H1       H     0.82304      0.41667      0.5          0
C4       C     0.80201      0.3527       0.5          0
H2       H     0.76835      0.36146      0.5          0
O1       O     0.44071      0.89168      0.5          0
C3       C     0.33192      0.88304      0.5          0
H1       H     0.32304      0.91667      0.5          0
C4       C     0.30201      0.8527       0.5          0
H2       H     0.26835      0.86146      0.5          0
O1       O     0.44071      0.39168      0            0
C3       C     0.33192      0.38304      0            0
H1       H     0.32304      0.41667      0            0
C4       C     0.30201      0.3527       0            0
H2       H     0.26835      0.36146      0            0
O1       O     0.05929      0            0.89168      0
C3       C     0.16808      0            0.88304      0
H1       H     0.17696      0            0.91667      0
C4       C     0.19799      0            0.8527       0
H2       H     0.23165      0            0.86146      0
O1       O     0.05929      0.5          0.39168      0
C3       C     0.16808      0.5          0.38304      0
H1       H     0.17696      0.5          0.41667      0
C4       C     0.19799      0.5          0.3527       0
H2       H     0.23165      0.5          0.36146      0
O1       O     0.55929      0            0.39168      0
C3       C     0.66808      0            0.38304      0
H1       H     0.67696      0            0.41667      0
C4       C     0.69799      0            0.3527       0
H2       H     0.73165      0            0.36146      0
O1       O     0.55929      0.5          0.89168      0
C3       C     0.66808      0.5          0.88304      0
H1       H     0.67696      0.5          0.91667      0
C4       C     0.69799      0.5          0.8527       0
H2       H     0.73165      0.5          0.86146      0
O1       O     0.94071      0            0.89168      0
C3       C     0.83192      0            0.88304      0
H1       H     0.82304      0            0.91667      0
C4       C     0.80201      0            0.8527       0
H2       H     0.76835      0            0.86146      0
O1       O     0.94071      0.5          0.39168      0
C3       C     0.83192      0.5          0.38304      0
H1       H     0.82304      0.5          0.41667      0
C4       C     0.80201      0.5          0.3527       0
H2       H     0.76835      0.5          0.36146      0
O1       O     0.44071      0            0.39168      0
C3       C     0.33192      0            0.38304      0
H1       H     0.32304      0            0.41667      0
C4       C     0.30201      0            0.3527       0
H2       H     0.26835      0            0.36146      0
O1       O     0.44071      0.5          0.89168      0
C3       C     0.33192      0.5          0.88304      0
H1       H     0.32304      0.5          0.91667      0
C4       C     0.30201      0.5          0.8527       0
H2       H     0.26835      0.5          0.86146      0
O1       O     0.05929      0            0.10832      0
C3       C     0.16808      0            0.11696      0
H1       H     0.17696      0            0.08333      0
C4       C     0.19799      0            0.1473       0
H2       H     0.23165      0            0.13854      0
O1       O     0.05929      0.5          0.60832      0
C3       C     0.16808      0.5          0.61696      0
H1       H     0.17696      0.5          0.58333      0
C4       C     0.19799      0.5          0.6473       0
H2       H     0.23165      0.5          0.63854      0
O1       O     0.55929      0            0.60832      0
C3       C     0.66808      0            0.61696      0
H1       H     0.67696      0            0.58333      0
C4       C     0.69799      0            0.6473       0
H2       H     0.73165      0            0.63854      0
O1       O     0.55929      0.5          0.10832      0
C3       C     0.66808      0.5          0.11696      0
H1       H     0.67696      0.5          0.08333      0
C4       C     0.69799      0.5          0.1473       0
H2       H     0.73165      0.5          0.13854      0
O1       O     0.94071      0            0.10832      0
C3       C     0.83192      0            0.11696      0
H1       H     0.82304      0            0.08333      0
C4       C     0.80201      0            0.1473       0
H2       H     0.76835      0            0.13854      0
O1       O     0.94071      0.5          0.60832      0
C3       C     0.83192      0.5          0.61696      0
H1       H     0.82304      0.5          0.58333      0
C4       C     0.80201      0.5          0.6473       0
H2       H     0.76835      0.5          0.63854      0
O1       O     0.44071      0            0.60832      0
C3       C     0.33192      0            0.61696      0
H1       H     0.32304      0            0.58333      0
C4       C     0.30201      0            0.6473       0
H2       H     0.26835      0            0.63854      0
O1       O     0.44071      0.5          0.10832      0
C3       C     0.33192      0.5          0.11696      0
H1       H     0.32304      0.5          0.08333      0
C4       C     0.30201      0.5          0.1473       0
H2       H     0.26835      0.5          0.13854      0
O1       O     0            0.10832      0.94071      0
C3       C     0            0.11696      0.83192      0
H1       H     0            0.08333      0.82304      0
C4       C     0            0.1473       0.80201      0
H2       H     0            0.13854      0.76835      0
O1       O     0            0.60832      0.44071      0
C3       C     0            0.61696      0.33192      0
H1       H     0            0.58333      0.32304      0
C4       C     0            0.6473       0.30201      0
H2       H     0            0.63854      0.26835      0
O1       O     0.5          0.10832      0.44071      0
C3       C     0.5          0.11696      0.33192      0
H1       H     0.5          0.08333      0.32304      0
C4       C     0.5          0.1473       0.30201      0
H2       H     0.5          0.13854      0.26835      0
O1       O     0.5          0.60832      0.94071      0
C3       C     0.5          0.61696      0.83192      0
H1       H     0.5          0.58333      0.82304      0
C4       C     0.5          0.6473       0.80201      0
H2       H     0.5          0.63854      0.76835      0
O1       O     0            0.10832      0.05929      0
C3       C     0            0.11696      0.16808      0
H1       H     0            0.08333      0.17696      0
C4       C     0            0.1473       0.19799      0
H2       H     0            0.13854      0.23165      0
O1       O     0            0.60832      0.55929      0
C3       C     0            0.61696      0.66808      0
H1       H     0            0.58333      0.67696      0
C4       C     0            0.6473       0.69799      0
H2       H     0            0.63854      0.73165      0
O1       O     0.5          0.10832      0.55929      0
C3       C     0.5          0.11696      0.66808      0
H1       H     0.5          0.08333      0.67696      0
C4       C     0.5          0.1473       0.69799      0
H2       H     0.5          0.13854      0.73165      0
O1       O     0.5          0.60832      0.05929      0
C3       C     0.5          0.61696      0.16808      0
H1       H     0.5          0.58333      0.17696      0
C4       C     0.5          0.6473       0.19799      0
H2       H     0.5          0.63854      0.23165      0
O1       O     0            0.89168      0.94071      0
C3       C     0            0.88304      0.83192      0
H1       H     0            0.91667      0.82304      0
C4       C     0            0.8527       0.80201      0
H2       H     0            0.86146      0.76835      0
O1       O     0            0.39168      0.44071      0
C3       C     0            0.38304      0.33192      0
H1       H     0            0.41667      0.32304      0
C4       C     0            0.3527       0.30201      0
H2       H     0            0.36146      0.26835      0
O1       O     0.5          0.89168      0.44071      0
C3       C     0.5          0.88304      0.33192      0
H1       H     0.5          0.91667      0.32304      0
C4       C     0.5          0.8527       0.30201      0
H2       H     0.5          0.86146      0.26835      0
O1       O     0.5          0.39168      0.94071      0
C3       C     0.5          0.38304      0.83192      0
H1       H     0.5          0.41667      0.82304      0
C4       C     0.5          0.3527       0.80201      0
H2       H     0.5          0.36146      0.76835      0
O1       O     0            0.89168      0.05929      0
C3       C     0            0.88304      0.16808      0
H1       H     0            0.91667      0.17696      0
C4       C     0            0.8527       0.19799      0
H2       H     0            0.86146      0.23165      0
O1       O     0            0.39168      0.55929      0
C3       C     0            0.38304      0.66808      0
H1       H     0            0.41667      0.67696      0
C4       C     0            0.3527       0.69799      0
H2       H     0            0.36146      0.73165      0
O1       O     0.5          0.89168      0.55929      0
C3       C     0.5          0.88304      0.66808      0
H1       H     0.5          0.91667      0.67696      0
C4       C     0.5          0.8527       0.69799      0
H2       H     0.5          0.86146      0.73165      0
O1       O     0.5          0.39168      0.05929      0
C3       C     0.5          0.38304      0.16808      0
H1       H     0.5          0.41667      0.17696      0
C4       C     0.5          0.3527       0.19799      0
H2       H     0.5          0.36146      0.23165      0
O1       O     0.10832      0.05929      0            0
C3       C     0.11696      0.16808      0            0
H1       H     0.08333      0.17696      0            0
C4       C     0.1473       0.19799      0            0
H2       H     0.13854      0.23165      0            0
O1       O     0.10832      0.55929      0.5          0
C3       C     0.11696      0.66808      0.5          0
H1       H     0.08333      0.67696      0.5          0
C4       C     0.1473       0.69799      0.5          0
H2       H     0.13854      0.73165      0.5          0
O1       O     0.60832      0.05929      0.5          0
C3       C     0.61696      0.16808      0.5          0
H1       H     0.58333      0.17696      0.5          0
C4       C     0.6473       0.19799      0.5          0
H2       H     0.63854      0.23165      0.5          0
O1       O     0.60832      0.55929      0            0
C3       C     0.61696      0.66808      0            0
H1       H     0.58333      0.67696      0            0
C4       C     0.6473       0.69799      0            0
H2       H     0.63854      0.73165      0            0
O1       O     0.10832      0.94071      0            0
C3       C     0.11696      0.83192      0            0
H1       H     0.08333      0.82304      0            0
C4       C     0.1473       0.80201      0            0
H2       H     0.13854      0.76835      0            0
O1       O     0.10832      0.44071      0.5          0
C3       C     0.11696      0.33192      0.5          0
H1       H     0.08333      0.32304      0.5          0
C4       C     0.1473       0.30201      0.5          0
H2       H     0.13854      0.26835      0.5          0
O1       O     0.60832      0.94071      0.5          0
C3       C     0.61696      0.83192      0.5          0
H1       H     0.58333      0.82304      0.5          0
C4       C     0.6473       0.80201      0.5          0
H2       H     0.63854      0.76835      0.5          0
O1       O     0.60832      0.44071      0            0
C3       C     0.61696      0.33192      0            0
H1       H     0.58333      0.32304      0            0
C4       C     0.6473       0.30201      0            0
H2       H     0.63854      0.26835      0            0
O1       O     0.89168      0.05929      0            0
C3       C     0.88304      0.16808      0            0
H1       H     0.91667      0.17696      0            0
C4       C     0.8527       0.19799      0            0
H2       H     0.86146      0.23165      0            0
O1       O     0.89168      0.55929      0.5          0
C3       C     0.88304      0.66808      0.5          0
H1       H     0.91667      0.67696      0.5          0
C4       C     0.8527       0.69799      0.5          0
H2       H     0.86146      0.73165      0.5          0
O1       O     0.39168      0.05929      0.5          0
C3       C     0.38304      0.16808      0.5          0
H1       H     0.41667      0.17696      0.5          0
C4       C     0.3527       0.19799      0.5          0
H2       H     0.36146      0.23165      0.5          0
O1       O     0.39168      0.55929      0            0
C3       C     0.38304      0.66808      0            0
H1       H     0.41667      0.67696      0            0
C4       C     0.3527       0.69799      0            0
H2       H     0.36146      0.73165      0            0
O1       O     0.89168      0.94071      0            0
C3       C     0.88304      0.83192      0            0
H1       H     0.91667      0.82304      0            0
C4       C     0.8527       0.80201      0            0
H2       H     0.86146      0.76835      0            0
O1       O     0.89168      0.44071      0.5          0
C3       C     0.88304      0.33192      0.5          0
H1       H     0.91667      0.32304      0.5          0
C4       C     0.8527       0.30201      0.5          0
H2       H     0.86146      0.26835      0.5          0
O1       O     0.39168      0.94071      0.5          0
C3       C     0.38304      0.83192      0.5          0
H1       H     0.41667      0.82304      0.5          0
C4       C     0.3527       0.80201      0.5          0
H2       H     0.36146      0.76835      0.5          0
O1       O     0.39168      0.44071      0            0
C3       C     0.38304      0.33192      0            0
H1       H     0.41667      0.32304      0            0
C4       C     0.3527       0.30201      0            0
H2       H     0.36146      0.26835      0            0
C1       C     0            0.0958       0.0958       0
C2       C     0            0.12789      0.12789      0
C5       C     0            0.18798      0.18798      0
C6       C     0            0.2199       0.2199       0
C1       C     0            0.5958       0.5958       0
C2       C     0            0.62789      0.62789      0
C5       C     0            0.68798      0.68798      0
C6       C     0            0.7199       0.7199       0
C1       C     0.5          0.0958       0.5958       0
C2       C     0.5          0.12789      0.62789      0
C5       C     0.5          0.18798      0.68798      0
C6       C     0.5          0.2199       0.7199       0
C1       C     0.5          0.5958       0.0958       0
C2       C     0.5          0.62789      0.12789      0
C5       C     0.5          0.68798      0.18798      0
C6       C     0.5          0.7199       0.2199       0
C1       C     0            0.9042       0.0958       0
C2       C     0            0.87211      0.12789      0
C5       C     0            0.81202      0.18798      0
C6       C     0            0.7801       0.2199       0
C1       C     0            0.4042       0.5958       0
C2       C     0            0.37211      0.62789      0
C5       C     0            0.31202      0.68798      0
C6       C     0            0.2801       0.7199       0
C1       C     0.5          0.9042       0.5958       0
C2       C     0.5          0.87211      0.62789      0
C5       C     0.5          0.81202      0.68798      0
C6       C     0.5          0.7801       0.7199       0
C1       C     0.5          0.4042       0.0958       0
C2       C     0.5          0.37211      0.12789      0
C5       C     0.5          0.31202      0.18798      0
C6       C     0.5          0.2801       0.2199       0
C1       C     0            0.0958       0.9042       0
C2       C     0            0.12789      0.87211      0
C5       C     0            0.18798      0.81202      0
C6       C     0            0.2199       0.7801       0
C1       C     0            0.5958       0.4042       0
C2       C     0            0.62789      0.37211      0
C5       C     0            0.68798      0.31202      0
C6       C     0            0.7199       0.2801       0
C1       C     0.5          0.0958       0.4042       0
C2       C     0.5          0.12789      0.37211      0
C5       C     0.5          0.18798      0.31202      0
C6       C     0.5          0.2199       0.2801       0
C1       C     0.5          0.5958       0.9042       0
C2       C     0.5          0.62789      0.87211      0
C5       C     0.5          0.68798      0.81202      0
C6       C     0.5          0.7199       0.7801       0
C1       C     0            0.9042       0.9042       0
C2       C     0            0.87211      0.87211      0
C5       C     0            0.81202      0.81202      0
C6       C     0            0.7801       0.7801       0
C1       C     0            0.4042       0.4042       0
C2       C     0            0.37211      0.37211      0
C5       C     0            0.31202      0.31202      0
C6       C     0            0.2801       0.2801       0
C1       C     0.5          0.9042       0.4042       0
C2       C     0.5          0.87211      0.37211      0
C5       C     0.5          0.81202      0.31202      0
C6       C     0.5          0.7801       0.2801       0
C1       C     0.5          0.4042       0.9042       0
C2       C     0.5          0.37211      0.87211      0
C5       C     0.5          0.31202      0.81202      0
C6       C     0.5          0.2801       0.7801       0
C1       C     0.0958       0            0.0958       0
C2       C     0.12789      0            0.12789      0
C5       C     0.18798      0            0.18798      0
C6       C     0.2199       0            0.2199       0
C1       C     0.0958       0.5          0.5958       0
C2       C     0.12789      0.5          0.62789      0
C5       C     0.18798      0.5          0.68798      0
C6       C     0.2199       0.5          0.7199       0
C1       C     0.5958       0            0.5958       0
C2       C     0.62789      0            0.62789      0
C5       C     0.68798      0            0.68798      0
C6       C     0.7199       0            0.7199       0
C1       C     0.5958       0.5          0.0958       0
C2       C     0.62789      0.5          0.12789      0
C5       C     0.68798      0.5          0.18798      0
C6       C     0.7199       0.5          0.2199       0
C1       C     0.0958       0            0.9042       0
C2       C     0.12789      0            0.87211      0
C5       C     0.18798      0            0.81202      0
C6       C     0.2199       0            0.7801       0
C1       C     0.0958       0.5          0.4042       0
C2       C     0.12789      0.5          0.37211      0
C5       C     0.18798      0.5          0.31202      0
C6       C     0.2199       0.5          0.2801       0
C1       C     0.5958       0            0.4042       0
C2       C     0.62789      0            0.37211      0
C5       C     0.68798      0            0.31202      0
C6       C     0.7199       0            0.2801       0
C1       C     0.5958       0.5          0.9042       0
C2       C     0.62789      0.5          0.87211      0
C5       C     0.68798      0.5          0.81202      0
C6       C     0.7199       0.5          0.7801       0
C1       C     0.9042       0            0.0958       0
C2       C     0.87211      0            0.12789      0
C5       C     0.81202      0            0.18798      0
C6       C     0.7801       0            0.2199       0
C1       C     0.9042       0.5          0.5958       0
C2       C     0.87211      0.5          0.62789      0
C5       C     0.81202      0.5          0.68798      0
C6       C     0.7801       0.5          0.7199       0
C1       C     0.4042       0            0.5958       0
C2       C     0.37211      0            0.62789      0
C5       C     0.31202      0            0.68798      0
C6       C     0.2801       0            0.7199       0
C1       C     0.4042       0.5          0.0958       0
C2       C     0.37211      0.5          0.12789      0
C5       C     0.31202      0.5          0.18798      0
C6       C     0.2801       0.5          0.2199       0
C1       C     0.9042       0            0.9042       0
C2       C     0.87211      0            0.87211      0
C5       C     0.81202      0            0.81202      0
C6       C     0.7801       0            0.7801       0
C1       C     0.9042       0.5          0.4042       0
C2       C     0.87211      0.5          0.37211      0
C5       C     0.81202      0.5          0.31202      0
C6       C     0.7801       0.5          0.2801       0
C1       C     0.4042       0            0.4042       0
C2       C     0.37211      0            0.37211      0
C5       C     0.31202      0            0.31202      0
C6       C     0.2801       0            0.2801       0
C1       C     0.4042       0.5          0.9042       0
C2       C     0.37211      0.5          0.87211      0
C5       C     0.31202      0.5          0.81202      0
C6       C     0.2801       0.5          0.7801       0
C1       C     0.0958       0.0958       0            0
C2       C     0.12789      0.12789      0            0
C5       C     0.18798      0.18798      0            0
C6       C     0.2199       0.2199       0            0
C1       C     0.0958       0.5958       0.5          0
C2       C     0.12789      0.62789      0.5          0
C5       C     0.18798      0.68798      0.5          0
C6       C     0.2199       0.7199       0.5          0
C1       C     0.5958       0.0958       0.5          0
C2       C     0.62789      0.12789      0.5          0
C5       C     0.68798      0.18798      0.5          0
C6       C     0.7199       0.2199       0.5          0
C1       C     0.5958       0.5958       0            0
C2       C     0.62789      0.62789      0            0
C5       C     0.68798      0.68798      0            0
C6       C     0.7199       0.7199       0            0
C1       C     0.9042       0.0958       0            0
C2       C     0.87211      0.12789      0            0
C5       C     0.81202      0.18798      0            0
C6       C     0.7801       0.2199       0            0
C1       C     0.9042       0.5958       0.5          0
C2       C     0.87211      0.62789      0.5          0
C5       C     0.81202      0.68798      0.5          0
C6       C     0.7801       0.7199       0.5          0
C1       C     0.4042       0.0958       0.5          0
C2       C     0.37211      0.12789      0.5          0
C5       C     0.31202      0.18798      0.5          0
C6       C     0.2801       0.2199       0.5          0
C1       C     0.4042       0.5958       0            0
C2       C     0.37211      0.62789      0            0
C5       C     0.31202      0.68798      0            0
C6       C     0.2801       0.7199       0            0
C1       C     0.0958       0.9042       0            0
C2       C     0.12789      0.87211      0            0
C5       C     0.18798      0.81202      0            0
C6       C     0.2199       0.7801       0            0
C1       C     0.0958       0.4042       0.5          0
C2       C     0.12789      0.37211      0.5          0
C5       C     0.18798      0.31202      0.5          0
C6       C     0.2199       0.2801       0.5          0
C1       C     0.5958       0.9042       0.5          0
C2       C     0.62789      0.87211      0.5          0
C5       C     0.68798      0.81202      0.5          0
C6       C     0.7199       0.7801       0.5          0
C1       C     0.5958       0.4042       0            0
C2       C     0.62789      0.37211      0            0
C5       C     0.68798      0.31202      0            0
C6       C     0.7199       0.2801       0            0
C1       C     0.9042       0.9042       0            0
C2       C     0.87211      0.87211      0            0
C5       C     0.81202      0.81202      0            0
C6       C     0.7801       0.7801       0            0
C1       C     0.9042       0.4042       0.5          0
C2       C     0.87211      0.37211      0.5          0
C5       C     0.81202      0.31202      0.5          0
C6       C     0.7801       0.2801       0.5          0
C1       C     0.4042       0.9042       0.5          0
C2       C     0.37211      0.87211      0.5          0
C5       C     0.31202      0.81202      0.5          0
C6       C     0.2801       0.7801       0.5          0
C1       C     0.4042       0.4042       0            0
C2       C     0.37211      0.37211      0            0
C5       C     0.31202      0.31202      0            0
C6       C     0.2801       0.2801       0            0
H3       H     0.80882      0.75017      0.55626      0
H3       H     0.74983      0.69118      0.44374      0
H3       H     0.69118      0.74983      0.44374      0
H3       H     0.75017      0.80882      0.55626      0
H3       H     0.05626      0.80882      0.25017      0
H3       H     0.94374      0.74983      0.19118      0
H3       H     0.94374      0.69118      0.24983      0
H3       H     0.05626      0.75017      0.30882      0
H3       H     0.44374      0.69118      0.25017      0
H3       H     0.55626      0.75017      0.19118      0
H3       H     0.55626      0.80882      0.24983      0
H3       H     0.44374      0.74983      0.30882      0
H3       H     0.24983      0.55626      0.19118      0
H3       H     0.30882      0.44374      0.25017      0
H3       H     0.25017      0.44374      0.30882      0
H3       H     0.19118      0.55626      0.24983      0
H3       H     0.74983      0.55626      0.69118      0
H3       H     0.80882      0.44374      0.75017      0
H3       H     0.75017      0.44374      0.80882      0
H3       H     0.69118      0.55626      0.74983      0
H3       H     0.44374      0.19118      0.75017      0
H3       H     0.55626      0.25017      0.69118      0
H3       H     0.55626      0.30882      0.74983      0
H3       H     0.44374      0.24983      0.80882      0
H3       H     0.24983      0.44374      0.80882      0
H3       H     0.30882      0.55626      0.74983      0
H3       H     0.25017      0.55626      0.69118      0
H3       H     0.19118      0.44374      0.75017      0
H3       H     0.19118      0.24983      0.55626      0
H3       H     0.25017      0.30882      0.44374      0
H3       H     0.30882      0.25017      0.44374      0
H3       H     0.24983      0.19118      0.55626      0
H3       H     0.75017      0.94374      0.69118      0
H3       H     0.69118      0.05626      0.75017      0
H3       H     0.74983      0.05626      0.80882      0
H3       H     0.80882      0.94374      0.74983      0
H3       H     0.55626      0.80882      0.75017      0
H3       H     0.44374      0.74983      0.69118      0
H3       H     0.44374      0.69118      0.74983      0
H3       H     0.55626      0.75017      0.80882      0
H3       H     0.30882      0.74983      0.44374      0
H3       H     0.24983      0.80882      0.55626      0
H3       H     0.19118      0.75017      0.55626      0
H3       H     0.25017      0.69118      0.44374      0
H3       H     0.80882      0.24983      0.44374      0
H3       H     0.74983      0.30882      0.55626      0
H3       H     0.69118      0.25017      0.55626      0
H3       H     0.75017      0.19118      0.44374      0
H3       H     0.75017      0.44374      0.19118      0
H3       H     0.69118      0.55626      0.25017      0
H3       H     0.74983      0.55626      0.30882      0
H3       H     0.80882      0.44374      0.24983      0
H3       H     0.55626      0.30882      0.25017      0
H3       H     0.44374      0.24983      0.19118      0
H3       H     0.44374      0.19118      0.24983      0
H3       H     0.55626      0.25017      0.30882      0
H3       H     0.30882      0.24983      0.94374      0
H3       H     0.24983      0.30882      0.05626      0
H3       H     0.19118      0.25017      0.05626      0
H3       H     0.25017      0.19118      0.94374      0
H3       H     0.75017      0.05626      0.30882      0
H3       H     0.69118      0.94374      0.24983      0
H3       H     0.74983      0.94374      0.19118      0
H3       H     0.80882      0.05626      0.25017      0
H3       H     0.24983      0.05626      0.69118      0
H3       H     0.30882      0.94374      0.75017      0
H3       H     0.25017      0.94374      0.80882      0
H3       H     0.19118      0.05626      0.74983      0
H3       H     0.24983      0.94374      0.30882      0
H3       H     0.30882      0.05626      0.24983      0
H3       H     0.25017      0.05626      0.19118      0
H3       H     0.19118      0.94374      0.25017      0
H3       H     0.69118      0.24983      0.05626      0
H3       H     0.75017      0.30882      0.94374      0
H3       H     0.80882      0.25017      0.94374      0
H3       H     0.74983      0.19118      0.05626      0
H3       H     0.69118      0.75017      0.94374      0
H3       H     0.75017      0.69118      0.05626      0
H3       H     0.80882      0.74983      0.05626      0
H3       H     0.74983      0.80882      0.94374      0
H3       H     0.30882      0.75017      0.05626      0
H3       H     0.24983      0.69118      0.94374      0
H3       H     0.19118      0.74983      0.94374      0
H3       H     0.25017      0.80882      0.05626      0
H3       H     0.94374      0.69118      0.75017      0
H3       H     0.05626      0.75017      0.69118      0
H3       H     0.05626      0.80882      0.74983      0
H3       H     0.94374      0.74983      0.80882      0
H3       H     0.05626      0.19118      0.74983      0
H3       H     0.94374      0.25017      0.80882      0
H3       H     0.94374      0.30882      0.75017      0
H3       H     0.05626      0.24983      0.69118      0
H3       H     0.94374      0.30882      0.24983      0
H3       H     0.05626      0.24983      0.30882      0
H3       H     0.05626      0.19118      0.25017      0
H3       H     0.94374      0.25017      0.19118      0


