data_IRMOF-3

_audit_creation_method RASPA-1.0
_audit_creation_date 2011-3-7
_audit_author_name 'Tina Duren/Houston Frost/Randall Snurr/David Dubbeldam'

_citation_author_name        "M. Eddaoudi, J. Kim, N. Rosi, D. Vodak, J. Wachter, M. O'Keeffe, and O.M. Yaghi"
_citation_title              'Systematic design of pore size and functionality in isoreticular MOFs and their application in methane storage'
_citation_journal_abbrev     'Science'
_citation_journal_volume     295
_citation_journal_number     5554
_citation_page_first         469
_citation_page_last          472
_citation_year               2002

_cell_length_a    1.0
_cell_length_b    1.0
_cell_length_c    1.0
_cell_angle_alpha 90
_cell_angle_beta  90
_cell_angle_gamma 90
_cell_volume      17066.9

_symmetry_cell_setting          triclinic
_symmetry_space_group_name_Hall 'P 1'
_symmetry_space_group_name_H-M  'P 1'
_symmetry_Int_Tables_number     1

_symmetry_equiv_pos_as_xyz 'x,y,z'

loop_
_atom_site_label
_atom_site_type_symbol
_atom_site_hybridization
_atom_site_fract_x
_atom_site_fract_y
_atom_site_fract_z
 C1  C      sp2      -0.34701752   -0.67268790   -1.15592516
 C2  C      sp2      -0.42601752   -0.53568790    1.24207484
 C3  C      sp2       0.46998248    0.46131210   -1.23392516
 C4  C      sp2       0.37098248    0.57931210    1.18607484
 C5  C      sp3      -5.75901752   -8.18768790   -0.00092516
 C6  C      sp3      -6.62201752   -9.38968790   -0.01192516
 C7  C      sp3      -1.65801752   -2.36168790    0.05907484
 C8  C      sp2      -0.79001752   -1.16268790    0.04907484
 C9  C      sp3      -1.67001752   -6.68168790   -2.49492516
 C10 C      sp3      -0.83501752   -7.30368790   -3.54692516
 C11 C      sp3      -5.79801752   -3.83068790    2.55407484
 C12 C      sp3      -6.64701752   -3.23568790    3.61307484
 C13 C      sp3      -5.78601752   -3.83068790   -2.53092516
 C14 C      sp3      -6.60201752   -3.23568790   -3.58692516
 C15 C      sp3      -1.67801752   -6.76568790    2.56907484
 C16 C      sp3      -0.84001752   -7.38568790    3.59307484
 C17 C      sp3       5.74798248    8.19631210    0.00507484
 C18 C      sp3       6.56998248    9.40331210   -0.01792516
 C19 C      sp3       1.66798248    2.29931210    0.00307484
 C20 C      sp2       0.82998248    1.10431210   -0.02392516
 C21 C      sp3       1.64098248    6.72531210   -2.45892516
 C22 C      sp3       0.78298248    7.31731210   -3.50792516
 C23 C      sp3       5.74998248    3.78131210    2.55107484
 C24 C      sp3       6.60598248    3.15631210    3.58407484
 C25 C      sp3       5.79498248    3.77431210   -2.47692516
 C26 C      sp3       6.66198248    3.17231210   -3.48392516
 C27 C      sp3       1.59598248    6.67231210    2.57007484
 C28 C      sp3       0.74598248    7.24431210    3.61107484
 H1  H      sp3      -0.64901752   -1.18968790   -2.06592516
 H2  H      sp3      -0.78601752   -0.94168790    2.18207484
 H3  H      sp3       0.67598248    1.09831210    2.09007484
 H4  H      sp3       0.63898248    0.39731210   -3.27192516
 H5  H      sp3       1.47998248    1.73031210   -2.44292516
 N1  N      sp3       0.88498248    0.90131210   -2.43392516
 O1  O      sp3      -4.50501752   -8.37368790    0.00007484
 O2  O      sp3      -2.00401752   -2.83468790   -1.06792516
 O3  O      sp3      -1.99701752   -2.83368790    1.18407484
 O4  O      sp3      -2.00501752   -7.40668790   -1.51092516
 O5  O      sp3      -1.99401752   -5.46568790   -2.64692516
 O6  O      sp3      -6.38701752   -4.36768790    1.56907484
 O7  O      sp3      -4.54101752   -3.75768790    2.70907484
 O8  O      sp3      -4.51001752   -3.77968790   -2.65392516
 O9  O      sp3      -6.37101752   -4.36668790   -1.54092516
 O10 O      sp3      -2.06001752   -7.49168790    1.58307484
 O11 O      sp3      -1.98701752   -5.54168790    2.69807484
 O12 O      sp3       6.33098248    7.06831210    0.02807484
 O13 O      sp3       4.47398248    8.33331210    0.00407484
 O14 O      sp3       2.05498248    2.79831210   -1.11292516
 O15 O      sp3       1.97498248    2.79231210    1.13107484
 O16 O      sp3       1.96698248    7.46831210   -1.48492516
 O17 O      sp3       1.99198248    5.51431210   -2.60292516
 O18 O      sp3       6.33198248    4.35531210    1.58007484
 O19 O      sp3       4.49398248    3.70131210    2.70507484
 O20 O      sp3       4.53798248    3.72131210   -2.64992516
 O21 O      sp3       6.34198248    4.33631210   -1.45992516
 O22 O      sp3       1.96898248    7.42231210    1.61607484
 O23 O      sp3       1.92998248    5.43831210    2.67007484
 O24 O      sp3      -3.74301752   -5.25068790    0.05507484
 O25 O      sp3       3.70198248    5.25631210    0.04207484
 O26 O      sp3      -6.33101752   -7.05768790    0.00607484
 Zn1 Zn2+   sp3      -5.67501752   -5.24768790    0.01807484
 Zn2 Zn2+   sp3      -3.10801752   -7.06268790    0.02407484
 Zn3 Zn2+   sp3      -3.07501752   -4.35968790   -1.50792516
 Zn4 Zn2+   sp3      -3.07101752   -4.36468790    1.63507484
 Zn5 Zn2+   sp3       5.62398248    5.28831210    0.06007484
 Zn6 Zn2+   sp3       3.02598248    7.05731210    0.06307484
 Zn7 Zn2+   sp3       3.10498248    4.35931210   -1.54992516
 Zn8 Zn2+   sp3       3.05598248    4.30731210    1.58407484
 H6  H      sp3      -7.64950409   -9.09107237   -0.01161091
 H7  H      sp3      -6.42198869   -9.98034584    0.85756415
 H8  H      sp3      -6.41858602   -9.96679908   -0.88968271
 H9  H      sp3      -0.63893804   -8.32371331   -3.29001856
 H10 H      sp3       0.09009992   -6.77229404   -3.62864603
 H11 H      sp3      -1.35258889   -7.26470315   -4.48260676
 H12 H      sp3      -6.02455140   -2.82061858    4.37802804
 H13 H      sp3      -7.27384913   -3.99314897    4.03525355
 H14 H      sp3      -7.25563010   -2.46370609    3.19054103
 H15 H      sp3      -7.63795571   -3.35459989   -3.34694183
 H16 H      sp3      -6.37261715   -2.19393346   -3.67072947
 H17 H      sp3      -6.39302834   -3.72281779   -4.51640243
 H18 H      sp3      -0.60272887   -6.66287095    4.34549079
 H19 H      sp3      -1.36699357   -8.20377748    4.03796323
 H20 H      sp3       0.06329974   -7.74441348    3.14559983
 H21 H      sp3       7.60457870    9.13042450   -0.01136544
 H22 H      sp3       6.35282031    9.99920274    0.84384914
 H23 H      sp3       6.35476662    9.96458806   -0.90310956
 H24 H      sp3       0.56529322    8.33480257   -3.25847671
 H25 H      sp3      -0.13008727    6.76367099   -3.57637321
 H26 H      sp3       1.29295282    7.28179247   -4.44790846
 H27 H      sp3       5.98935481    2.71251100    4.33754076
 H28 H      sp3       7.23102179    3.90240964    4.02855694
 H29 H      sp3       7.21642866    2.40216272    3.13294938
 H30 H      sp3       7.68465778    3.29896349   -3.19583721
 H31 H      sp3       6.44136172    2.12857335   -3.56660465
 H32 H      sp3       6.49584808    3.64784938   -4.42793981
 H33 H      sp3       0.51862722    6.49329723    4.33852673
 H34 H      sp3       1.25858375    8.05562880    4.08426101
 H35 H      sp3      -0.16195098    7.60304231    3.17304578
