data_IRMOF-3

_audit_creation_method RASPA-1.0
_audit_creation_date 2014-11-30
_audit_author_name 'David Dubbeldam'

_citation_author_name        'M. Eddaoudi, J. Kim, N. Rosi, D. Vodak, J. Wachter, M. O'Keeffe, and O.M. Yaghi'
_citation_title              'Systematic design of pore size and functionality in isoreticular MOFs and their application in methane storage'
_citation_journal_abbrev     'Science'
_citation_journal_volume     295
_citation_page_first         469
_citation_page_last          472
_citation_year               2002

_cell_length_a    25.7465
_cell_length_b    25.7465
_cell_length_c    25.7465
_cell_angle_alpha 90
_cell_angle_beta  90
_cell_angle_gamma 90
_cell_volume      17066.9

_symmetry_cell_setting          triclinic
_symmetry_space_group_name_Hall 'P 1'
_symmetry_space_group_name_H-M  'P 1'
_symmetry_Int_Tables_number     1

_symmetry_equiv_pos_as_xyz 'x,y,z'

loop_
_atom_site_label
_atom_site_type_symbol
_atom_site_fract_x
_atom_site_fract_y
_atom_site_fract_z
_atom_site_charge
Zn1      Zn2+   0.293420000000     0.206580000000     0.206580000000     1.21548    
Zn1      Zn2+   0.706580000000     0.793420000000     0.206580000000     1.21548    
Zn1      Zn2+   0.706580000000     0.206580000000     0.793420000000     1.21548    
Zn1      Zn2+   0.293420000000     0.793420000000     0.793420000000     1.21548    
Zn1      Zn2+   0.206580000000     0.293420000000     0.206580000000     1.21548    
Zn1      Zn2+   0.206580000000     0.706580000000     0.793420000000     1.21548    
Zn1      Zn2+   0.793420000000     0.706580000000     0.206580000000     1.21548    
Zn1      Zn2+   0.793420000000     0.293420000000     0.793420000000     1.21548    
Zn1      Zn2+   0.206580000000     0.206580000000     0.293420000000     1.21548    
Zn1      Zn2+   0.793420000000     0.206580000000     0.706580000000     1.21548    
Zn1      Zn2+   0.206580000000     0.793420000000     0.706580000000     1.21548    
Zn1      Zn2+   0.793420000000     0.793420000000     0.293420000000     1.21548    
Zn1      Zn2+   0.206580000000     0.293420000000     0.793420000000     1.21548    
Zn1      Zn2+   0.793420000000     0.706580000000     0.793420000000     1.21548    
Zn1      Zn2+   0.206580000000     0.706580000000     0.206580000000     1.21548    
Zn1      Zn2+   0.793420000000     0.293420000000     0.206580000000     1.21548    
Zn1      Zn2+   0.293420000000     0.206580000000     0.793420000000     1.21548    
Zn1      Zn2+   0.706580000000     0.206580000000     0.206580000000     1.21548    
Zn1      Zn2+   0.706580000000     0.793420000000     0.793420000000     1.21548    
Zn1      Zn2+   0.293420000000     0.793420000000     0.206580000000     1.21548    
Zn1      Zn2+   0.206580000000     0.206580000000     0.706580000000     1.21548    
Zn1      Zn2+   0.206580000000     0.793420000000     0.293420000000     1.21548    
Zn1      Zn2+   0.793420000000     0.206580000000     0.293420000000     1.21548    
Zn1      Zn2+   0.793420000000     0.793420000000     0.706580000000     1.21548    
Zn1      Zn2+   0.293420000000     0.706580000000     0.706580000000     1.21548    
Zn1      Zn2+   0.706580000000     0.293420000000     0.706580000000     1.21548    
Zn1      Zn2+   0.706580000000     0.706580000000     0.293420000000     1.21548    
Zn1      Zn2+   0.293420000000     0.293420000000     0.293420000000     1.21548    
Zn1      Zn2+   0.293420000000     0.706580000000     0.293420000000     1.21548    
Zn1      Zn2+   0.706580000000     0.706580000000     0.706580000000     1.21548    
Zn1      Zn2+   0.706580000000     0.293420000000     0.293420000000     1.21548    
Zn1      Zn2+   0.293420000000     0.293420000000     0.706580000000     1.21548    
O1       O      0.280660000000     0.219340000000     0.134000000000    -0.503029   
O1       O      0.719340000000     0.780660000000     0.134000000000    -0.503029   
O1       O      0.719340000000     0.219340000000     0.866000000000    -0.503029   
O1       O      0.134000000000     0.280660000000     0.219340000000    -0.503029   
O1       O      0.134000000000     0.719340000000     0.780660000000    -0.503029   
O1       O      0.866000000000     0.719340000000     0.219340000000    -0.503029   
O1       O      0.780660000000     0.134000000000     0.719340000000    -0.503029   
O1       O      0.219340000000     0.866000000000     0.719340000000    -0.503029   
O1       O      0.780660000000     0.866000000000     0.280660000000    -0.503029   
O1       O      0.780660000000     0.719340000000     0.866000000000    -0.503029   
O1       O      0.219340000000     0.719340000000     0.134000000000    -0.503029   
O1       O      0.780660000000     0.280660000000     0.134000000000    -0.503029   
O1       O      0.280660000000     0.134000000000     0.780660000000    -0.503029   
O1       O      0.719340000000     0.866000000000     0.780660000000    -0.503029   
O1       O      0.280660000000     0.866000000000     0.219340000000    -0.503029   
O1       O      0.134000000000     0.219340000000     0.719340000000    -0.503029   
O1       O      0.134000000000     0.780660000000     0.280660000000    -0.503029   
O1       O      0.866000000000     0.219340000000     0.280660000000    -0.503029   
O1       O      0.280660000000     0.219340000000     0.866000000000    -0.503029   
O1       O      0.280660000000     0.780660000000     0.134000000000    -0.503029   
O1       O      0.719340000000     0.219340000000     0.134000000000    -0.503029   
O1       O      0.866000000000     0.719340000000     0.780660000000    -0.503029   
O1       O      0.134000000000     0.280660000000     0.780660000000    -0.503029   
O1       O      0.134000000000     0.719340000000     0.219340000000    -0.503029   
O1       O      0.780660000000     0.866000000000     0.719340000000    -0.503029   
O1       O      0.219340000000     0.866000000000     0.280660000000    -0.503029   
O1       O      0.780660000000     0.134000000000     0.280660000000    -0.503029   
O1       O      0.780660000000     0.719340000000     0.134000000000    -0.503029   
O1       O      0.219340000000     0.280660000000     0.134000000000    -0.503029   
O1       O      0.219340000000     0.719340000000     0.866000000000    -0.503029   
O1       O      0.719340000000     0.866000000000     0.219340000000    -0.503029   
O1       O      0.280660000000     0.866000000000     0.780660000000    -0.503029   
O1       O      0.280660000000     0.134000000000     0.219340000000    -0.503029   
O1       O      0.866000000000     0.219340000000     0.719340000000    -0.503029   
O1       O      0.134000000000     0.780660000000     0.719340000000    -0.503029   
O1       O      0.134000000000     0.219340000000     0.280660000000    -0.503029   
O1       O      0.280660000000     0.719340000000     0.634000000000    -0.503029   
O1       O      0.719340000000     0.280660000000     0.634000000000    -0.503029   
O1       O      0.719340000000     0.719340000000     0.366000000000    -0.503029   
O1       O      0.780660000000     0.634000000000     0.219340000000    -0.503029   
O1       O      0.219340000000     0.366000000000     0.219340000000    -0.503029   
O1       O      0.780660000000     0.366000000000     0.780660000000    -0.503029   
O1       O      0.780660000000     0.219340000000     0.366000000000    -0.503029   
O1       O      0.219340000000     0.219340000000     0.634000000000    -0.503029   
O1       O      0.780660000000     0.780660000000     0.634000000000    -0.503029   
O1       O      0.280660000000     0.634000000000     0.280660000000    -0.503029   
O1       O      0.719340000000     0.366000000000     0.280660000000    -0.503029   
O1       O      0.280660000000     0.366000000000     0.719340000000    -0.503029   
O1       O      0.280660000000     0.719340000000     0.366000000000    -0.503029   
O1       O      0.280660000000     0.280660000000     0.634000000000    -0.503029   
O1       O      0.719340000000     0.719340000000     0.634000000000    -0.503029   
O1       O      0.780660000000     0.366000000000     0.219340000000    -0.503029   
O1       O      0.219340000000     0.366000000000     0.780660000000    -0.503029   
O1       O      0.780660000000     0.634000000000     0.780660000000    -0.503029   
O1       O      0.780660000000     0.219340000000     0.634000000000    -0.503029   
O1       O      0.219340000000     0.780660000000     0.634000000000    -0.503029   
O1       O      0.219340000000     0.219340000000     0.366000000000    -0.503029   
O1       O      0.719340000000     0.366000000000     0.719340000000    -0.503029   
O1       O      0.280660000000     0.366000000000     0.280660000000    -0.503029   
O1       O      0.280660000000     0.634000000000     0.719340000000    -0.503029   
O1       O      0.634000000000     0.280660000000     0.719340000000    -0.503029   
O1       O      0.634000000000     0.719340000000     0.280660000000    -0.503029   
O1       O      0.366000000000     0.719340000000     0.719340000000    -0.503029   
O1       O      0.634000000000     0.219340000000     0.219340000000    -0.503029   
O1       O      0.634000000000     0.780660000000     0.780660000000    -0.503029   
O1       O      0.366000000000     0.219340000000     0.780660000000    -0.503029   
O1       O      0.366000000000     0.719340000000     0.280660000000    -0.503029   
O1       O      0.634000000000     0.280660000000     0.280660000000    -0.503029   
O1       O      0.634000000000     0.719340000000     0.719340000000    -0.503029   
O1       O      0.366000000000     0.219340000000     0.219340000000    -0.503029   
O1       O      0.634000000000     0.780660000000     0.219340000000    -0.503029   
O1       O      0.634000000000     0.219340000000     0.780660000000    -0.503029   
O2       O      0.250000000000     0.250000000000     0.250000000000     0.365385   
O2       O      0.750000000000     0.750000000000     0.250000000000     0.365385   
O2       O      0.750000000000     0.250000000000     0.750000000000     0.365385   
O2       O      0.250000000000     0.750000000000     0.750000000000     0.365385   
O2       O      0.250000000000     0.250000000000     0.750000000000     0.365385   
O2       O      0.750000000000     0.750000000000     0.750000000000     0.365385   
O2       O      0.250000000000     0.750000000000     0.250000000000     0.365385   
O2       O      0.750000000000     0.250000000000     0.250000000000     0.365385   
C8       C      0.250000000000     0.250000000000     0.110520000000    -0.0323892  
C8       C      0.750000000000     0.750000000000     0.110520000000    -0.0323892  
C8       C      0.110520000000     0.250000000000     0.250000000000    -0.0323892  
C8       C      0.110520000000     0.750000000000     0.750000000000    -0.0323892  
C8       C      0.250000000000     0.889480000000     0.750000000000    -0.0323892  
C8       C      0.750000000000     0.889480000000     0.250000000000    -0.0323892  
C8       C      0.250000000000     0.750000000000     0.110520000000    -0.0323892  
C8       C      0.750000000000     0.250000000000     0.110520000000    -0.0323892  
C8       C      0.750000000000     0.889480000000     0.750000000000    -0.0323892  
C8       C      0.250000000000     0.889480000000     0.250000000000    -0.0323892  
C8       C      0.110520000000     0.250000000000     0.750000000000    -0.0323892  
C8       C      0.110520000000     0.750000000000     0.250000000000    -0.0323892  
C8       C      0.250000000000     0.750000000000     0.610520000000    -0.0323892  
C8       C      0.750000000000     0.250000000000     0.610520000000    -0.0323892  
C8       C      0.250000000000     0.389480000000     0.250000000000    -0.0323892  
C8       C      0.750000000000     0.389480000000     0.750000000000    -0.0323892  
C8       C      0.250000000000     0.250000000000     0.610520000000    -0.0323892  
C8       C      0.750000000000     0.750000000000     0.610520000000    -0.0323892  
C8       C      0.750000000000     0.389480000000     0.250000000000    -0.0323892  
C8       C      0.250000000000     0.389480000000     0.750000000000    -0.0323892  
C8       C      0.610520000000     0.250000000000     0.750000000000    -0.0323892  
C8       C      0.610520000000     0.750000000000     0.250000000000    -0.0323892  
C8       C      0.610520000000     0.250000000000     0.250000000000    -0.0323892  
C8       C      0.610520000000     0.750000000000     0.750000000000    -0.0323892  
C3       C      0.250000000000     0.250000000000     0.055680000000    -0.091672   
C3       C      0.750000000000     0.750000000000     0.055680000000    -0.091672   
C3       C      0.055680000000     0.250000000000     0.250000000000    -0.091672   
C3       C      0.055680000000     0.750000000000     0.750000000000    -0.091672   
C3       C      0.250000000000     0.944320000000     0.750000000000    -0.091672   
C3       C      0.750000000000     0.944320000000     0.250000000000    -0.091672   
C3       C      0.250000000000     0.750000000000     0.055680000000    -0.091672   
C3       C      0.750000000000     0.250000000000     0.055680000000    -0.091672   
C3       C      0.750000000000     0.944320000000     0.750000000000    -0.091672   
C3       C      0.250000000000     0.944320000000     0.250000000000    -0.091672   
C3       C      0.055680000000     0.250000000000     0.750000000000    -0.091672   
C3       C      0.055680000000     0.750000000000     0.250000000000    -0.091672   
C3       C      0.250000000000     0.750000000000     0.555680000000    -0.091672   
C3       C      0.750000000000     0.250000000000     0.555680000000    -0.091672   
C3       C      0.250000000000     0.444320000000     0.250000000000    -0.091672   
C3       C      0.750000000000     0.444320000000     0.750000000000    -0.091672   
C3       C      0.250000000000     0.250000000000     0.555680000000    -0.091672   
C3       C      0.750000000000     0.750000000000     0.555680000000    -0.091672   
C3       C      0.750000000000     0.444320000000     0.250000000000    -0.091672   
C3       C      0.250000000000     0.444320000000     0.750000000000    -0.091672   
C3       C      0.555680000000     0.250000000000     0.750000000000    -0.091672   
C3       C      0.555680000000     0.750000000000     0.250000000000    -0.091672   
C3       C      0.555680000000     0.250000000000     0.250000000000    -0.091672   
C3       C      0.555680000000     0.750000000000     0.750000000000    -0.091672   
C4       C      0.280970000000     0.219030000000     0.026620000000     1.21634    
C4       C      0.026620000000     0.719030000000     0.780970000000     1.21634    
C4       C      0.780970000000     0.973380000000     0.280970000000     1.21634    
C4       C      0.219030000000     0.719030000000     0.026620000000     1.21634    
C4       C      0.280970000000     0.973380000000     0.219030000000     1.21634    
C4       C      0.026620000000     0.219030000000     0.719030000000     1.21634    
C4       C      0.719030000000     0.219030000000     0.026620000000     1.21634    
C4       C      0.026620000000     0.719030000000     0.219030000000     1.21634    
C4       C      0.780970000000     0.973380000000     0.719030000000     1.21634    
C4       C      0.780970000000     0.719030000000     0.026620000000     1.21634    
C4       C      0.280970000000     0.973380000000     0.780970000000     1.21634    
C4       C      0.026620000000     0.219030000000     0.280970000000     1.21634    
C4       C      0.280970000000     0.719030000000     0.526620000000     1.21634    
C4       C      0.780970000000     0.473380000000     0.780970000000     1.21634    
C4       C      0.219030000000     0.219030000000     0.526620000000     1.21634    
C4       C      0.280970000000     0.473380000000     0.719030000000     1.21634    
C4       C      0.719030000000     0.719030000000     0.526620000000     1.21634    
C4       C      0.780970000000     0.473380000000     0.219030000000     1.21634    
C4       C      0.780970000000     0.219030000000     0.526620000000     1.21634    
C4       C      0.280970000000     0.473380000000     0.280970000000     1.21634    
C4       C      0.526620000000     0.719030000000     0.280970000000     1.21634    
C4       C      0.526620000000     0.219030000000     0.219030000000     1.21634    
C4       C      0.526620000000     0.719030000000     0.719030000000     1.21634    
C4       C      0.526620000000     0.219030000000     0.780970000000     1.21634    
C2       C      0.719030000000     0.780970000000     0.026620000000    -0.523688   
C2       C      0.026620000000     0.280970000000     0.219030000000    -0.523688   
C2       C      0.219030000000     0.973380000000     0.719030000000    -0.523688   
C2       C      0.780970000000     0.280970000000     0.026620000000    -0.523688   
C2       C      0.719030000000     0.973380000000     0.780970000000    -0.523688   
C2       C      0.026620000000     0.780970000000     0.280970000000    -0.523688   
C2       C      0.280970000000     0.780970000000     0.026620000000    -0.523688   
C2       C      0.026620000000     0.280970000000     0.780970000000    -0.523688   
C2       C      0.219030000000     0.973380000000     0.280970000000    -0.523688   
C2       C      0.219030000000     0.280970000000     0.026620000000    -0.523688   
C2       C      0.719030000000     0.973380000000     0.219030000000    -0.523688   
C2       C      0.026620000000     0.780970000000     0.719030000000    -0.523688   
C2       C      0.719030000000     0.280970000000     0.526620000000    -0.523688   
C2       C      0.219030000000     0.473380000000     0.219030000000    -0.523688   
C2       C      0.780970000000     0.780970000000     0.526620000000    -0.523688   
C2       C      0.719030000000     0.473380000000     0.280970000000    -0.523688   
C2       C      0.280970000000     0.280970000000     0.526620000000    -0.523688   
C2       C      0.219030000000     0.473380000000     0.780970000000    -0.523688   
C2       C      0.219030000000     0.780970000000     0.526620000000    -0.523688   
C2       C      0.719030000000     0.473380000000     0.719030000000    -0.523688   
C2       C      0.526620000000     0.280970000000     0.719030000000    -0.523688   
C2       C      0.526620000000     0.780970000000     0.780970000000    -0.523688   
C2       C      0.526620000000     0.280970000000     0.280970000000    -0.523688   
C2       C      0.526620000000     0.780970000000     0.219030000000    -0.523688   
C7       C      0.750000000000     0.250000000000     0.889480000000     0.457961   
C7       C      0.250000000000     0.750000000000     0.889480000000     0.457961   
C7       C      0.889480000000     0.750000000000     0.250000000000     0.457961   
C7       C      0.889480000000     0.250000000000     0.750000000000     0.457961   
C7       C      0.250000000000     0.110520000000     0.250000000000     0.457961   
C7       C      0.750000000000     0.110520000000     0.750000000000     0.457961   
C7       C      0.250000000000     0.250000000000     0.889480000000     0.457961   
C7       C      0.750000000000     0.750000000000     0.889480000000     0.457961   
C7       C      0.250000000000     0.110520000000     0.750000000000     0.457961   
C7       C      0.750000000000     0.110520000000     0.250000000000     0.457961   
C7       C      0.889480000000     0.250000000000     0.250000000000     0.457961   
C7       C      0.889480000000     0.750000000000     0.750000000000     0.457961   
C7       C      0.750000000000     0.750000000000     0.389480000000     0.457961   
C7       C      0.250000000000     0.250000000000     0.389480000000     0.457961   
C7       C      0.250000000000     0.610520000000     0.750000000000     0.457961   
C7       C      0.750000000000     0.610520000000     0.250000000000     0.457961   
C7       C      0.250000000000     0.750000000000     0.389480000000     0.457961   
C7       C      0.750000000000     0.250000000000     0.389480000000     0.457961   
C7       C      0.250000000000     0.610520000000     0.250000000000     0.457961   
C7       C      0.750000000000     0.610520000000     0.750000000000     0.457961   
C7       C      0.389480000000     0.750000000000     0.750000000000     0.457961   
C7       C      0.389480000000     0.250000000000     0.250000000000     0.457961   
C7       C      0.389480000000     0.250000000000     0.750000000000     0.457961   
C7       C      0.389480000000     0.750000000000     0.250000000000     0.457961   
C6       C      0.750000000000     0.250000000000     0.944320000000    -0.244573   
C6       C      0.250000000000     0.750000000000     0.944320000000    -0.244573   
C6       C      0.944320000000     0.750000000000     0.250000000000    -0.244573   
C6       C      0.944320000000     0.250000000000     0.750000000000    -0.244573   
C6       C      0.250000000000     0.055680000000     0.250000000000    -0.244573   
C6       C      0.750000000000     0.055680000000     0.750000000000    -0.244573   
C6       C      0.250000000000     0.250000000000     0.944320000000    -0.244573   
C6       C      0.750000000000     0.750000000000     0.944320000000    -0.244573   
C6       C      0.250000000000     0.055680000000     0.750000000000    -0.244573   
C6       C      0.750000000000     0.055680000000     0.250000000000    -0.244573   
C6       C      0.944320000000     0.250000000000     0.250000000000    -0.244573   
C6       C      0.944320000000     0.750000000000     0.750000000000    -0.244573   
C6       C      0.750000000000     0.750000000000     0.444320000000    -0.244573   
C6       C      0.250000000000     0.250000000000     0.444320000000    -0.244573   
C6       C      0.250000000000     0.555680000000     0.750000000000    -0.244573   
C6       C      0.750000000000     0.555680000000     0.250000000000    -0.244573   
C6       C      0.250000000000     0.750000000000     0.444320000000    -0.244573   
C6       C      0.750000000000     0.250000000000     0.444320000000    -0.244573   
C6       C      0.250000000000     0.555680000000     0.250000000000    -0.244573   
C6       C      0.750000000000     0.555680000000     0.750000000000    -0.244573   
C6       C      0.444320000000     0.750000000000     0.750000000000    -0.244573   
C6       C      0.444320000000     0.250000000000     0.250000000000    -0.244573   
C6       C      0.444320000000     0.250000000000     0.750000000000    -0.244573   
C6       C      0.444320000000     0.750000000000     0.250000000000    -0.244573   
C5       C      0.719030000000     0.219030000000     0.973380000000     0.0962017  
C5       C      0.973380000000     0.719030000000     0.219030000000     0.0962017  
C5       C      0.780970000000     0.026620000000     0.719030000000     0.0962017  
C5       C      0.780970000000     0.719030000000     0.973380000000     0.0962017  
C5       C      0.280970000000     0.026620000000     0.780970000000     0.0962017  
C5       C      0.973380000000     0.219030000000     0.280970000000     0.0962017  
C5       C      0.280970000000     0.219030000000     0.973380000000     0.0962017  
C5       C      0.973380000000     0.719030000000     0.780970000000     0.0962017  
C5       C      0.780970000000     0.026620000000     0.280970000000     0.0962017  
C5       C      0.219030000000     0.719030000000     0.973380000000     0.0962017  
C5       C      0.280970000000     0.026620000000     0.219030000000     0.0962017  
C5       C      0.973380000000     0.219030000000     0.719030000000     0.0962017  
C5       C      0.719030000000     0.719030000000     0.473380000000     0.0962017  
C5       C      0.780970000000     0.526620000000     0.219030000000     0.0962017  
C5       C      0.780970000000     0.219030000000     0.473380000000     0.0962017  
C5       C      0.280970000000     0.526620000000     0.280970000000     0.0962017  
C5       C      0.280970000000     0.719030000000     0.473380000000     0.0962017  
C5       C      0.780970000000     0.526620000000     0.780970000000     0.0962017  
C5       C      0.219030000000     0.219030000000     0.473380000000     0.0962017  
C5       C      0.280970000000     0.526620000000     0.719030000000     0.0962017  
C5       C      0.473380000000     0.719030000000     0.719030000000     0.0962017  
C5       C      0.473380000000     0.219030000000     0.780970000000     0.0962017  
C5       C      0.473380000000     0.719030000000     0.280970000000     0.0962017  
C5       C      0.473380000000     0.219030000000     0.219030000000     0.0962017  
O3       O      0.280660000000     0.780660000000     0.866000000000     1.21468    
O3       O      0.866000000000     0.280660000000     0.780660000000     1.21468    
O3       O      0.219340000000     0.134000000000     0.280660000000     1.21468    
O3       O      0.219340000000     0.280660000000     0.866000000000     1.21468    
O3       O      0.719340000000     0.134000000000     0.219340000000     1.21468    
O3       O      0.866000000000     0.780660000000     0.719340000000     1.21468    
O3       O      0.719340000000     0.780660000000     0.866000000000     1.21468    
O3       O      0.866000000000     0.280660000000     0.219340000000     1.21468    
O3       O      0.219340000000     0.134000000000     0.719340000000     1.21468    
O3       O      0.780660000000     0.280660000000     0.866000000000     1.21468    
O3       O      0.719340000000     0.134000000000     0.780660000000     1.21468    
O3       O      0.866000000000     0.780660000000     0.280660000000     1.21468    
O3       O      0.280660000000     0.280660000000     0.366000000000     1.21468    
O3       O      0.219340000000     0.634000000000     0.780660000000     1.21468    
O3       O      0.219340000000     0.780660000000     0.366000000000     1.21468    
O3       O      0.719340000000     0.634000000000     0.719340000000     1.21468    
O3       O      0.719340000000     0.280660000000     0.366000000000     1.21468    
O3       O      0.219340000000     0.634000000000     0.219340000000     1.21468    
O3       O      0.780660000000     0.780660000000     0.366000000000     1.21468    
O3       O      0.719340000000     0.634000000000     0.280660000000     1.21468    
O3       O      0.366000000000     0.280660000000     0.280660000000     1.21468    
O3       O      0.366000000000     0.780660000000     0.219340000000     1.21468    
O3       O      0.366000000000     0.280660000000     0.719340000000     1.21468    
O3       O      0.366000000000     0.780660000000     0.780660000000     1.21468    
C1       C      0.280970000000     0.780970000000     0.973380000000    -0.536934   
C1       C      0.973380000000     0.280970000000     0.780970000000    -0.536934   
C1       C      0.219030000000     0.026620000000     0.280970000000    -0.536934   
C1       C      0.219030000000     0.280970000000     0.973380000000    -0.536934   
C1       C      0.719030000000     0.026620000000     0.219030000000    -0.536934   
C1       C      0.973380000000     0.780970000000     0.719030000000    -0.536934   
C1       C      0.719030000000     0.780970000000     0.973380000000    -0.536934   
C1       C      0.973380000000     0.280970000000     0.219030000000    -0.536934   
C1       C      0.219030000000     0.026620000000     0.719030000000    -0.536934   
C1       C      0.780970000000     0.280970000000     0.973380000000    -0.536934   
C1       C      0.719030000000     0.026620000000     0.780970000000    -0.536934   
C1       C      0.973380000000     0.780970000000     0.280970000000    -0.536934   
C1       C      0.280970000000     0.280970000000     0.473380000000    -0.536934   
C1       C      0.219030000000     0.526620000000     0.780970000000    -0.536934   
C1       C      0.219030000000     0.780970000000     0.473380000000    -0.536934   
C1       C      0.719030000000     0.526620000000     0.719030000000    -0.536934   
C1       C      0.719030000000     0.280970000000     0.473380000000    -0.536934   
C1       C      0.219030000000     0.526620000000     0.219030000000    -0.536934   
C1       C      0.780970000000     0.780970000000     0.473380000000    -0.536934   
C1       C      0.719030000000     0.526620000000     0.280970000000    -0.536934   
C1       C      0.473380000000     0.280970000000     0.280970000000    -0.536934   
C1       C      0.473380000000     0.780970000000     0.219030000000    -0.536934   
C1       C      0.473380000000     0.280970000000     0.719030000000    -0.536934   
C1       C      0.473380000000     0.780970000000     0.780970000000    -0.536934   
N1       N      0.317680000000     0.817680000000     0.952610000000     0.45795    
N1       N      0.952610000000     0.317680000000     0.817680000000     0.45795    
N1       N      0.182320000000     0.047390000000     0.317680000000     0.45795    
N1       N      0.182320000000     0.317680000000     0.952610000000     0.45795    
N1       N      0.682320000000     0.047390000000     0.182320000000     0.45795    
N1       N      0.952610000000     0.817680000000     0.682320000000     0.45795    
N1       N      0.682320000000     0.817680000000     0.952610000000     0.45795    
N1       N      0.952610000000     0.317680000000     0.182320000000     0.45795    
N1       N      0.182320000000     0.047390000000     0.682320000000     0.45795    
N1       N      0.817680000000     0.317680000000     0.952610000000     0.45795    
N1       N      0.682320000000     0.047390000000     0.817680000000     0.45795    
N1       N      0.952610000000     0.817680000000     0.317680000000     0.45795    
N1       N      0.317680000000     0.317680000000     0.452610000000     0.45795    
N1       N      0.182320000000     0.547390000000     0.817680000000     0.45795    
N1       N      0.182320000000     0.817680000000     0.452610000000     0.45795    
N1       N      0.682320000000     0.547390000000     0.682320000000     0.45795    
N1       N      0.682320000000     0.317680000000     0.452610000000     0.45795    
N1       N      0.182320000000     0.547390000000     0.182320000000     0.45795    
N1       N      0.817680000000     0.817680000000     0.452610000000     0.45795    
N1       N      0.682320000000     0.547390000000     0.317680000000     0.45795    
N1       N      0.452610000000     0.317680000000     0.317680000000     0.45795    
N1       N      0.452610000000     0.817680000000     0.182320000000     0.45795    
N1       N      0.452610000000     0.317680000000     0.682320000000     0.45795    
N1       N      0.452610000000     0.817680000000     0.817680000000     0.45795    
H3       H      0.803570000000     0.545070000000     0.803570000000    -0.244573   
H3       H      0.804340000000     0.543040000000     0.195660000000    -0.244573   
H3       H      0.456960000000     0.695660000000     0.695660000000    -0.244573   
H3       H      0.454930000000     0.696430000000     0.303570000000    -0.244573   
H3       H      0.456960000000     0.195660000000     0.195660000000    -0.244573   
H3       H      0.456960000000     0.195660000000     0.804340000000    -0.244573   
H3       H      0.304340000000     0.543040000000     0.695660000000    -0.244573   
H3       H      0.303570000000     0.696430000000     0.454930000000    -0.244573   
H3       H      0.195660000000     0.195660000000     0.456960000000    -0.244573   
H3       H      0.695660000000     0.695660000000     0.456960000000    -0.244573   
H3       H      0.804340000000     0.195660000000     0.456960000000    -0.244573   
H3       H      0.304340000000     0.543040000000     0.304340000000    -0.244573   
H3       H      0.956960000000     0.195660000000     0.304340000000    -0.244573   
H3       H      0.956960000000     0.195660000000     0.695660000000    -0.244573   
H3       H      0.956960000000     0.695660000000     0.804340000000    -0.244573   
H3       H      0.956960000000     0.695660000000     0.195660000000    -0.244573   
H3       H      0.804340000000     0.043040000000     0.304340000000    -0.244573   
H3       H      0.804340000000     0.043040000000     0.695660000000    -0.244573   
H3       H      0.304340000000     0.043040000000     0.804340000000    -0.244573   
H3       H      0.304340000000     0.043040000000     0.195660000000    -0.244573   
H3       H      0.695660000000     0.195660000000     0.956960000000    -0.244573   
H3       H      0.304340000000     0.195660000000     0.956960000000    -0.244573   
H3       H      0.195660000000     0.695660000000     0.956960000000    -0.244573   
H3       H      0.804340000000     0.695660000000     0.956960000000    -0.244573   
H2       H      0.804340000000     0.456960000000     0.804340000000     0.201713   
H2       H      0.803570000000     0.454930000000     0.196430000000     0.201713   
H2       H      0.545070000000     0.696430000000     0.696430000000     0.201713   
H2       H      0.543040000000     0.695660000000     0.304340000000     0.201713   
H2       H      0.543040000000     0.195660000000     0.195660000000     0.201713   
H2       H      0.543040000000     0.195660000000     0.804340000000     0.201713   
H2       H      0.304340000000     0.456960000000     0.695660000000     0.201713   
H2       H      0.304340000000     0.695660000000     0.543040000000     0.201713   
H2       H      0.195660000000     0.195660000000     0.543040000000     0.201713   
H2       H      0.696430000000     0.696430000000     0.545070000000     0.201713   
H2       H      0.804340000000     0.195660000000     0.543040000000     0.201713   
H2       H      0.304340000000     0.456960000000     0.304340000000     0.201713   
H2       H      0.043040000000     0.695660000000     0.195660000000     0.201713   
H2       H      0.195660000000     0.695660000000     0.043040000000     0.201713   
H2       H      0.304340000000     0.195660000000     0.043040000000     0.201713   
H2       H      0.695660000000     0.195660000000     0.043040000000     0.201713   
H2       H      0.804340000000     0.695660000000     0.043040000000     0.201713   
H2       H      0.043040000000     0.195660000000     0.304340000000     0.201713   
H2       H      0.043040000000     0.195660000000     0.695660000000     0.201713   
H2       H      0.043040000000     0.695660000000     0.804340000000     0.201713   
H2       H      0.804340000000     0.956960000000     0.304340000000     0.201713   
H2       H      0.804340000000     0.956960000000     0.695660000000     0.201713   
H2       H      0.304340000000     0.956960000000     0.804340000000     0.201713   
H2       H      0.304340000000     0.956960000000     0.195660000000     0.201713   
H1       H      0.695660000000     0.456960000000     0.695660000000    -0.295297   
H1       H      0.695660000000     0.456960000000     0.304340000000    -0.295297   
H1       H      0.543040000000     0.804340000000     0.804340000000    -0.295297   
H1       H      0.543040000000     0.804340000000     0.195660000000    -0.295297   
H1       H      0.545070000000     0.303570000000     0.303570000000    -0.295297   
H1       H      0.543040000000     0.304340000000     0.695660000000    -0.295297   
H1       H      0.196430000000     0.454930000000     0.803570000000    -0.295297   
H1       H      0.195660000000     0.804340000000     0.543040000000    -0.295297   
H1       H      0.303570000000     0.303570000000     0.545070000000    -0.295297   
H1       H      0.804340000000     0.804340000000     0.543040000000    -0.295297   
H1       H      0.695660000000     0.304340000000     0.543040000000    -0.295297   
H1       H      0.195660000000     0.456960000000     0.195660000000    -0.295297   
H1       H      0.304340000000     0.804340000000     0.043040000000    -0.295297   
H1       H      0.195660000000     0.304340000000     0.043040000000    -0.295297   
H1       H      0.804340000000     0.304340000000     0.043040000000    -0.295297   
H1       H      0.695660000000     0.804340000000     0.043040000000    -0.295297   
H1       H      0.043040000000     0.304340000000     0.195660000000    -0.295297   
H1       H      0.043040000000     0.804340000000     0.304340000000    -0.295297   
H1       H      0.043040000000     0.804340000000     0.695660000000    -0.295297   
H1       H      0.043040000000     0.304340000000     0.804340000000    -0.295297   
H1       H      0.695660000000     0.956960000000     0.195660000000    -0.295297   
H1       H      0.695660000000     0.956960000000     0.804340000000    -0.295297   
H1       H      0.195660000000     0.956960000000     0.695660000000    -0.295297   
H1       H      0.195660000000     0.956960000000     0.304340000000    -0.295297   
H4       H      0.418010000000     0.321200000000     0.321200000000     1.21548    
H4       H      0.474220000000     0.337110000000     0.337110000000     1.21548    
H4       H      0.678800000000     0.581990000000     0.678800000000     1.21548    
H4       H      0.662890000000     0.525780000000     0.662890000000     1.21548    
H4       H      0.918010000000     0.321200000000     0.178800000000     1.21548    
H4       H      0.974220000000     0.337110000000     0.162890000000     1.21548    
H4       H      0.474220000000     0.337110000000     0.662890000000     1.21548    
H4       H      0.418010000000     0.321200000000     0.678800000000     1.21548    
H4       H      0.418010000000     0.821200000000     0.821200000000     1.21548    
H4       H      0.474220000000     0.837110000000     0.837110000000     1.21548    
H4       H      0.418010000000     0.821200000000     0.178800000000     1.21548    
H4       H      0.474220000000     0.837110000000     0.162890000000     1.21548    
H4       H      0.918010000000     0.821200000000     0.321200000000     1.21548    
H4       H      0.974220000000     0.837110000000     0.337110000000     1.21548    
H4       H      0.918010000000     0.821200000000     0.678800000000     1.21548    
H4       H      0.974220000000     0.837110000000     0.662890000000     1.21548    
H4       H      0.918010000000     0.321200000000     0.821200000000     1.21548    
H4       H      0.974220000000     0.337110000000     0.837110000000     1.21548    
H4       H      0.678800000000     0.081990000000     0.821200000000     1.21548    
H4       H      0.662890000000     0.025780000000     0.837110000000     1.21548    
H4       H      0.678800000000     0.081990000000     0.178800000000     1.21548    
H4       H      0.662890000000     0.025780000000     0.162890000000     1.21548    
H4       H      0.662890000000     0.337110000000     0.474220000000     1.21548    
H4       H      0.678800000000     0.321200000000     0.418010000000     1.21548    
H4       H      0.821200000000     0.321200000000     0.918010000000     1.21548    
H4       H      0.837110000000     0.337110000000     0.974220000000     1.21548    
H4       H      0.178800000000     0.081990000000     0.678800000000     1.21548    
H4       H      0.162890000000     0.025780000000     0.662890000000     1.21548    
H4       H      0.178800000000     0.321200000000     0.918010000000     1.21548    
H4       H      0.162890000000     0.337110000000     0.974220000000     1.21548    
H4       H      0.178800000000     0.081990000000     0.321200000000     1.21548    
H4       H      0.162890000000     0.025780000000     0.337110000000     1.21548    
H4       H      0.178800000000     0.581990000000     0.821200000000     1.21548    
H4       H      0.162890000000     0.525780000000     0.837110000000     1.21548    
H4       H      0.178800000000     0.821200000000     0.418010000000     1.21548    
H4       H      0.162890000000     0.837110000000     0.474220000000     1.21548    
H4       H      0.321200000000     0.321200000000     0.418010000000     1.21548    
H4       H      0.337110000000     0.337110000000     0.474220000000     1.21548    
H4       H      0.821200000000     0.821200000000     0.418010000000     1.21548    
H4       H      0.837110000000     0.837110000000     0.474220000000     1.21548    
H4       H      0.678800000000     0.821200000000     0.918010000000     1.21548    
H4       H      0.662890000000     0.837110000000     0.974220000000     1.21548    
H4       H      0.678800000000     0.581990000000     0.321200000000     1.21548    
H4       H      0.662890000000     0.525780000000     0.337110000000     1.21548    
H4       H      0.162890000000     0.525780000000     0.162890000000     1.21548    
H4       H      0.178800000000     0.581990000000     0.178800000000     1.21548    
H4       H      0.321200000000     0.821200000000     0.918010000000     1.21548    
H4       H      0.337110000000     0.837110000000     0.974220000000     1.21548    


