data_IRMOF-3

_audit_creation_method RASPA-1.0
_audit_creation_date 2014-11-30
_audit_author_name 'David Dubbeldam'

_citation_author_name        'M. Eddaoudi, J. Kim, N. Rosi, D. Vodak, J. Wachter, M. O'Keeffe, and O.M. Yaghi'
_citation_title              'Systematic design of pore size and functionality in isoreticular MOFs and their application in methane storage'
_citation_journal_abbrev     'Science'
_citation_journal_volume     295
_citation_page_first         469
_citation_page_last          472
_citation_year               2002

_cell_length_a    25.7465
_cell_length_b    25.7465
_cell_length_c    25.7465
_cell_angle_alpha 90
_cell_angle_beta  90
_cell_angle_gamma 90
_cell_volume      17066.9

_symmetry_cell_setting          triclinic
_symmetry_space_group_name_Hall 'P 1'
_symmetry_space_group_name_H-M  'P 1'
_symmetry_Int_Tables_number     1

_symmetry_equiv_pos_as_xyz 'x,y,z'

loop_
_atom_site_label
_atom_site_type_symbol
_atom_site_fract_x
_atom_site_fract_y
_atom_site_fract_z
_atom_site_charge
Zn1      Zn2+   0.293420000000     0.206580000000     0.206580000000     1.21634    
O1       O      0.280660000000     0.219340000000     0.134000000000    -0.500117   
O2       O      0.250000000000     0.250000000000     0.250000000000    -0.962724   
C8       C      0.250000000000     0.250000000000     0.110520000000     0.364275   
C3       C      0.250000000000     0.250000000000     0.055680000000    -0.0308191  
C4       C      0.280970000000     0.219030000000     0.026620000000    -0.0929314  
Zn1      Zn2+   0.706580000000     0.793420000000     0.206580000000     1.21456    
O1       O      0.719340000000     0.780660000000     0.134000000000    -0.50275    
O2       O      0.750000000000     0.750000000000     0.250000000000    -0.962724   
C8       C      0.750000000000     0.750000000000     0.110520000000     0.364264   
C3       C      0.750000000000     0.750000000000     0.055680000000    -0.0307995  
C2       C      0.719030000000     0.780970000000     0.026620000000    -0.138056   
Zn1      Zn2+   0.706580000000     0.206580000000     0.793420000000     1.21547    
O1       O      0.719340000000     0.219340000000     0.866000000000    -0.526642   
O2       O      0.750000000000     0.250000000000     0.750000000000    -0.962729   
C7       C      0.750000000000     0.250000000000     0.889480000000     0.459131   
C6       C      0.750000000000     0.250000000000     0.944320000000    -0.246321   
C5       C      0.719030000000     0.219030000000     0.973380000000     0.0976809  
Zn1      Zn2+   0.293420000000     0.793420000000     0.793420000000     1.21468    
O3       O      0.280660000000     0.780660000000     0.866000000000    -0.53729    
O2       O      0.250000000000     0.750000000000     0.750000000000    -0.962724   
C7       C      0.250000000000     0.750000000000     0.889480000000     0.459145   
C6       C      0.250000000000     0.750000000000     0.944320000000    -0.246329   
C1       C      0.280970000000     0.780970000000     0.973380000000     0.202776   
N1       N      0.317680000000     0.817680000000     0.952610000000    -0.295578   
Zn1      Zn2+   0.206580000000     0.293420000000     0.206580000000     1.21456    
O1       O      0.134000000000     0.280660000000     0.219340000000    -0.503078   
C8       C      0.110520000000     0.250000000000     0.250000000000     0.365389   
C3       C      0.055680000000     0.250000000000     0.250000000000    -0.0323951  
C2       C      0.026620000000     0.280970000000     0.219030000000    -0.137186   
Zn1      Zn2+   0.206580000000     0.706580000000     0.793420000000     1.21548    
O1       O      0.134000000000     0.719340000000     0.780660000000    -0.503029   
C8       C      0.110520000000     0.750000000000     0.750000000000     0.365385   
C3       C      0.055680000000     0.750000000000     0.750000000000    -0.0323892  
C4       C      0.026620000000     0.719030000000     0.780970000000    -0.091672   
Zn1      Zn2+   0.793420000000     0.706580000000     0.206580000000     1.21634    
O1       O      0.866000000000     0.719340000000     0.219340000000    -0.523688   
C7       C      0.889480000000     0.750000000000     0.250000000000     0.457961   
C6       C      0.944320000000     0.750000000000     0.250000000000    -0.244573   
C5       C      0.973380000000     0.719030000000     0.219030000000     0.0962017  
Zn1      Zn2+   0.793420000000     0.293420000000     0.793420000000     1.21468    
O3       O      0.866000000000     0.280660000000     0.780660000000    -0.536934   
C7       C      0.889480000000     0.250000000000     0.750000000000     0.45795    
C6       C      0.944320000000     0.250000000000     0.750000000000    -0.244573   
C1       C      0.973380000000     0.280970000000     0.780970000000     0.201713   
N1       N      0.952610000000     0.317680000000     0.817680000000    -0.295297   
Zn1      Zn2+   0.206580000000     0.206580000000     0.293420000000     1.21548    
O3       O      0.219340000000     0.134000000000     0.280660000000    -0.53484    
C7       C      0.250000000000     0.110520000000     0.250000000000     0.457419   
C6       C      0.250000000000     0.055680000000     0.250000000000    -0.24433    
C1       C      0.219030000000     0.026620000000     0.280970000000     0.20236    
N1       N      0.182320000000     0.047390000000     0.317680000000    -0.296127   
Zn1      Zn2+   0.793420000000     0.206580000000     0.706580000000     1.21632    
O1       O      0.780660000000     0.134000000000     0.719340000000    -0.523568   
C7       C      0.750000000000     0.110520000000     0.750000000000     0.457415   
C6       C      0.750000000000     0.055680000000     0.750000000000    -0.244338   
C5       C      0.780970000000     0.026620000000     0.719030000000     0.0959731  
Zn1      Zn2+   0.206580000000     0.793420000000     0.706580000000     1.21456    
O1       O      0.219340000000     0.866000000000     0.719340000000    -0.503361   
C8       C      0.250000000000     0.889480000000     0.750000000000     0.366417   
C3       C      0.250000000000     0.944320000000     0.750000000000    -0.0338302  
C2       C      0.219030000000     0.973380000000     0.719030000000    -0.136409   
Zn1      Zn2+   0.793420000000     0.793420000000     0.293420000000     1.21468    
O1       O      0.780660000000     0.866000000000     0.280660000000    -0.505677   
C8       C      0.750000000000     0.889480000000     0.250000000000     0.366417   
C3       C      0.750000000000     0.944320000000     0.250000000000    -0.0338288  
C4       C      0.780970000000     0.973380000000     0.280970000000    -0.0904871  
Zn1      Zn2+   0.206580000000     0.293420000000     0.793420000000     1.21457    
O3       O      0.219340000000     0.280660000000     0.866000000000    -0.536093   
O2       O      0.250000000000     0.250000000000     0.750000000000    -0.962724   
C7       C      0.250000000000     0.250000000000     0.889480000000     0.457933   
C6       C      0.250000000000     0.250000000000     0.944320000000    -0.245283   
C1       C      0.219030000000     0.280970000000     0.973380000000     0.203039   
N1       N      0.182320000000     0.317680000000     0.952610000000    -0.295913   
Zn1      Zn2+   0.793420000000     0.706580000000     0.793420000000     1.2171     
O1       O      0.780660000000     0.719340000000     0.866000000000    -0.522818   
O2       O      0.750000000000     0.750000000000     0.750000000000    -0.962724   
C7       C      0.750000000000     0.750000000000     0.889480000000     0.457939   
C6       C      0.750000000000     0.750000000000     0.944320000000    -0.245303   
C5       C      0.780970000000     0.719030000000     0.973380000000     0.0979254  
Zn1      Zn2+   0.206580000000     0.706580000000     0.206580000000     1.2147     
O1       O      0.219340000000     0.719340000000     0.134000000000    -0.504049   
O2       O      0.250000000000     0.750000000000     0.250000000000    -0.962722   
C8       C      0.250000000000     0.750000000000     0.110520000000     0.365863   
C3       C      0.250000000000     0.750000000000     0.055680000000    -0.0327344  
C4       C      0.219030000000     0.719030000000     0.026620000000    -0.0923559  
Zn1      Zn2+   0.793420000000     0.293420000000     0.206580000000     1.21463    
O1       O      0.780660000000     0.280660000000     0.134000000000    -0.504442   
O2       O      0.750000000000     0.250000000000     0.250000000000    -0.962724   
C8       C      0.750000000000     0.250000000000     0.110520000000     0.36588    
C3       C      0.750000000000     0.250000000000     0.055680000000    -0.0327925  
C2       C      0.780970000000     0.280970000000     0.026620000000    -0.137144   
Zn1      Zn2+   0.293420000000     0.206580000000     0.793420000000     1.21712    
O1       O      0.280660000000     0.134000000000     0.780660000000    -0.522785   
C7       C      0.250000000000     0.110520000000     0.750000000000     0.45735    
C6       C      0.250000000000     0.055680000000     0.750000000000    -0.244178   
C5       C      0.280970000000     0.026620000000     0.780970000000     0.095676   
Zn1      Zn2+   0.706580000000     0.206580000000     0.206580000000     1.21469    
O3       O      0.719340000000     0.134000000000     0.219340000000    -0.535501   
C7       C      0.750000000000     0.110520000000     0.250000000000     0.457351   
C6       C      0.750000000000     0.055680000000     0.250000000000    -0.244178   
C1       C      0.719030000000     0.026620000000     0.219030000000     0.202367   
N1       N      0.682320000000     0.047390000000     0.182320000000    -0.296058   
Zn1      Zn2+   0.706580000000     0.793420000000     0.793420000000     1.21457    
O1       O      0.719340000000     0.866000000000     0.780660000000    -0.504771   
C8       C      0.750000000000     0.889480000000     0.750000000000     0.366416   
C3       C      0.750000000000     0.944320000000     0.750000000000    -0.0338115  
C2       C      0.719030000000     0.973380000000     0.780970000000    -0.136294   
Zn1      Zn2+   0.293420000000     0.793420000000     0.206580000000     1.21463    
O1       O      0.280660000000     0.866000000000     0.219340000000    -0.5044     
C8       C      0.250000000000     0.889480000000     0.250000000000     0.366413   
C3       C      0.250000000000     0.944320000000     0.250000000000    -0.0337756  
C4       C      0.280970000000     0.973380000000     0.219030000000    -0.0907844  
Zn1      Zn2+   0.206580000000     0.206580000000     0.706580000000     1.21469    
O1       O      0.134000000000     0.219340000000     0.719340000000    -0.504129   
C8       C      0.110520000000     0.250000000000     0.750000000000     0.366364   
C3       C      0.055680000000     0.250000000000     0.750000000000    -0.0337973  
C4       C      0.026620000000     0.219030000000     0.719030000000    -0.0908781  
Zn1      Zn2+   0.206580000000     0.793420000000     0.293420000000     1.21457    
O1       O      0.134000000000     0.780660000000     0.280660000000    -0.504783   
C8       C      0.110520000000     0.750000000000     0.250000000000     0.366346   
C3       C      0.055680000000     0.750000000000     0.250000000000    -0.033734   
C2       C      0.026620000000     0.780970000000     0.280970000000    -0.136151   
Zn1      Zn2+   0.793420000000     0.206580000000     0.293420000000     1.21712    
O1       O      0.866000000000     0.219340000000     0.280660000000    -0.522784   
C7       C      0.889480000000     0.250000000000     0.250000000000     0.457633   
C6       C      0.944320000000     0.250000000000     0.250000000000    -0.244709   
C5       C      0.973380000000     0.219030000000     0.280970000000     0.0967414  
Zn1      Zn2+   0.793420000000     0.793420000000     0.706580000000     1.21463    
O3       O      0.866000000000     0.780660000000     0.719340000000    -0.535779   
C7       C      0.889480000000     0.750000000000     0.750000000000     0.457637   
C6       C      0.944320000000     0.750000000000     0.750000000000    -0.244725   
C1       C      0.973380000000     0.780970000000     0.719030000000     0.202696   
N1       N      0.952610000000     0.817680000000     0.682320000000    -0.295991   
O3       O      0.719340000000     0.780660000000     0.866000000000    -0.536059   
C1       C      0.719030000000     0.780970000000     0.973380000000     0.203063   
N1       N      0.682320000000     0.817680000000     0.952610000000    -0.295927   
O1       O      0.280660000000     0.219340000000     0.866000000000    -0.522782   
C5       C      0.280970000000     0.219030000000     0.973380000000     0.0979052  
O1       O      0.280660000000     0.780660000000     0.134000000000    -0.504376   
C2       C      0.280970000000     0.780970000000     0.026620000000    -0.13717    
O1       O      0.719340000000     0.219340000000     0.134000000000    -0.504084   
C4       C      0.719030000000     0.219030000000     0.026620000000    -0.0923356  
O1       O      0.866000000000     0.719340000000     0.780660000000    -0.522823   
C5       C      0.973380000000     0.719030000000     0.780970000000     0.0967515  
O3       O      0.866000000000     0.280660000000     0.219340000000    -0.535803   
C1       C      0.973380000000     0.280970000000     0.219030000000     0.202683   
N1       N      0.952610000000     0.317680000000     0.182320000000    -0.295982   
O1       O      0.134000000000     0.280660000000     0.780660000000    -0.504861   
C2       C      0.026620000000     0.280970000000     0.780970000000    -0.136125   
O1       O      0.134000000000     0.719340000000     0.219340000000    -0.50409    
C4       C      0.026620000000     0.719030000000     0.219030000000    -0.0908945  
O1       O      0.780660000000     0.866000000000     0.719340000000    -0.504428   
C4       C      0.780970000000     0.973380000000     0.719030000000    -0.0907827  
O1       O      0.219340000000     0.866000000000     0.280660000000    -0.504743   
C2       C      0.219030000000     0.973380000000     0.280970000000    -0.136304   
O1       O      0.780660000000     0.134000000000     0.280660000000    -0.522784   
C5       C      0.780970000000     0.026620000000     0.280970000000     0.095677   
O3       O      0.219340000000     0.134000000000     0.719340000000    -0.535502   
C1       C      0.219030000000     0.026620000000     0.719030000000     0.202366   
N1       N      0.182320000000     0.047390000000     0.682320000000    -0.296057   
O1       O      0.780660000000     0.719340000000     0.134000000000    -0.50011    
C4       C      0.780970000000     0.719030000000     0.026620000000    -0.0929539  
O1       O      0.219340000000     0.280660000000     0.134000000000    -0.502761   
C2       C      0.219030000000     0.280970000000     0.026620000000    -0.138037   
O3       O      0.780660000000     0.280660000000     0.866000000000    -0.537301   
C1       C      0.780970000000     0.280970000000     0.973380000000     0.202731   
N1       N      0.817680000000     0.317680000000     0.952610000000    -0.295567   
O1       O      0.219340000000     0.719340000000     0.866000000000    -0.526623   
C5       C      0.219030000000     0.719030000000     0.973380000000     0.0977178  
O1       O      0.719340000000     0.866000000000     0.219340000000    -0.50336    
C2       C      0.719030000000     0.973380000000     0.219030000000    -0.136409   
O1       O      0.280660000000     0.866000000000     0.780660000000    -0.505677   
C4       C      0.280970000000     0.973380000000     0.780970000000    -0.0904867  
O1       O      0.280660000000     0.134000000000     0.219340000000    -0.523537   
C5       C      0.280970000000     0.026620000000     0.219030000000     0.0959948  
O3       O      0.719340000000     0.134000000000     0.780660000000    -0.534864   
C1       C      0.719030000000     0.026620000000     0.780970000000     0.202326   
N1       N      0.682320000000     0.047390000000     0.817680000000    -0.296116   
O3       O      0.866000000000     0.780660000000     0.280660000000    -0.53692    
C1       C      0.973380000000     0.780970000000     0.280970000000     0.201761   
N1       N      0.952610000000     0.817680000000     0.317680000000    -0.295309   
O1       O      0.866000000000     0.219340000000     0.719340000000    -0.523725   
C5       C      0.973380000000     0.219030000000     0.719030000000     0.0961667  
O1       O      0.134000000000     0.780660000000     0.719340000000    -0.503073   
C2       C      0.026620000000     0.780970000000     0.719030000000    -0.137197   
O1       O      0.134000000000     0.219340000000     0.280660000000    -0.503021   
C4       C      0.026620000000     0.219030000000     0.280970000000    -0.0916576  
Zn1      Zn2+   0.293420000000     0.706580000000     0.706580000000     1.21635    
O1       O      0.280660000000     0.719340000000     0.634000000000    -0.500245   
C8       C      0.250000000000     0.750000000000     0.610520000000     0.364782   
C3       C      0.250000000000     0.750000000000     0.555680000000    -0.0320671  
C4       C      0.280970000000     0.719030000000     0.526620000000    -0.0906713  
Zn1      Zn2+   0.706580000000     0.293420000000     0.706580000000     1.21456    
O1       O      0.719340000000     0.280660000000     0.634000000000    -0.502731   
C8       C      0.750000000000     0.250000000000     0.610520000000     0.364049   
C3       C      0.750000000000     0.250000000000     0.555680000000    -0.0303258  
C2       C      0.719030000000     0.280970000000     0.526620000000    -0.138709   
Zn1      Zn2+   0.706580000000     0.706580000000     0.293420000000     1.21549    
O1       O      0.719340000000     0.719340000000     0.366000000000    -0.526819   
C7       C      0.750000000000     0.750000000000     0.389480000000     0.459996   
C6       C      0.750000000000     0.750000000000     0.444320000000    -0.248371   
C5       C      0.719030000000     0.719030000000     0.473380000000     0.101588   
Zn1      Zn2+   0.293420000000     0.293420000000     0.293420000000     1.21469    
O3       O      0.280660000000     0.280660000000     0.366000000000    -0.537542   
C7       C      0.250000000000     0.250000000000     0.389480000000     0.459932   
C6       C      0.250000000000     0.250000000000     0.444320000000    -0.248236   
C1       C      0.280970000000     0.280970000000     0.473380000000     0.205796   
N1       N      0.317680000000     0.317680000000     0.452610000000    -0.296024   
O3       O      0.219340000000     0.634000000000     0.780660000000    -0.535087   
C7       C      0.250000000000     0.610520000000     0.750000000000     0.458172   
C6       C      0.250000000000     0.555680000000     0.750000000000    -0.246163   
C1       C      0.219030000000     0.526620000000     0.780970000000     0.205291   
N1       N      0.182320000000     0.547390000000     0.817680000000    -0.296558   
O1       O      0.780660000000     0.634000000000     0.219340000000    -0.523736   
C7       C      0.750000000000     0.610520000000     0.250000000000     0.458237   
C6       C      0.750000000000     0.555680000000     0.250000000000    -0.246295   
C5       C      0.780970000000     0.526620000000     0.219030000000     0.0997385  
O1       O      0.219340000000     0.366000000000     0.219340000000    -0.503321   
C8       C      0.250000000000     0.389480000000     0.250000000000     0.36621    
C3       C      0.250000000000     0.444320000000     0.250000000000    -0.0333552  
C2       C      0.219030000000     0.473380000000     0.219030000000    -0.137023   
O1       O      0.780660000000     0.366000000000     0.780660000000    -0.505854   
C8       C      0.750000000000     0.389480000000     0.750000000000     0.366991   
C3       C      0.750000000000     0.444320000000     0.750000000000    -0.0352474  
C4       C      0.780970000000     0.473380000000     0.780970000000    -0.0880296  
O3       O      0.219340000000     0.780660000000     0.366000000000    -0.535836   
C7       C      0.250000000000     0.750000000000     0.389480000000     0.457173   
C6       C      0.250000000000     0.750000000000     0.444320000000    -0.24367    
C1       C      0.219030000000     0.780970000000     0.473380000000     0.202422   
N1       N      0.182320000000     0.817680000000     0.452610000000    -0.295793   
O1       O      0.780660000000     0.219340000000     0.366000000000    -0.522831   
C7       C      0.750000000000     0.250000000000     0.389480000000     0.458133   
C6       C      0.750000000000     0.250000000000     0.444320000000    -0.245752   
C5       C      0.780970000000     0.219030000000     0.473380000000     0.0986528  
O1       O      0.219340000000     0.219340000000     0.634000000000    -0.503867   
C8       C      0.250000000000     0.250000000000     0.610520000000     0.364959   
C3       C      0.250000000000     0.250000000000     0.555680000000    -0.0315069  
C4       C      0.219030000000     0.219030000000     0.526620000000    -0.0939319  
O1       O      0.780660000000     0.780660000000     0.634000000000    -0.50419    
C8       C      0.750000000000     0.750000000000     0.610520000000     0.364943   
C3       C      0.750000000000     0.750000000000     0.555680000000    -0.0313123  
C2       C      0.780970000000     0.780970000000     0.526620000000    -0.138648   
Zn1      Zn2+   0.293420000000     0.706580000000     0.293420000000     1.2171     
O1       O      0.280660000000     0.634000000000     0.280660000000    -0.522877   
C7       C      0.250000000000     0.610520000000     0.250000000000     0.457554   
C6       C      0.250000000000     0.555680000000     0.250000000000    -0.244621   
C5       C      0.280970000000     0.526620000000     0.280970000000     0.0963776  
Zn1      Zn2+   0.706580000000     0.706580000000     0.706580000000     1.21467    
O3       O      0.719340000000     0.634000000000     0.719340000000    -0.535361   
C7       C      0.750000000000     0.610520000000     0.750000000000     0.456539   
C6       C      0.750000000000     0.555680000000     0.750000000000    -0.242447   
C1       C      0.719030000000     0.526620000000     0.719030000000     0.201571   
N1       N      0.682320000000     0.547390000000     0.682320000000    -0.295877   
Zn1      Zn2+   0.706580000000     0.293420000000     0.293420000000     1.21456    
O1       O      0.719340000000     0.366000000000     0.280660000000    -0.504614   
C8       C      0.750000000000     0.389480000000     0.250000000000     0.365532   
C3       C      0.750000000000     0.444320000000     0.250000000000    -0.0324371  
C2       C      0.719030000000     0.473380000000     0.280970000000    -0.13768    
Zn1      Zn2+   0.293420000000     0.293420000000     0.706580000000     1.21462    
O1       O      0.280660000000     0.366000000000     0.719340000000    -0.504277   
C8       C      0.250000000000     0.389480000000     0.750000000000     0.365554   
C3       C      0.250000000000     0.444320000000     0.750000000000    -0.0326387  
C4       C      0.280970000000     0.473380000000     0.719030000000    -0.0922442  
O3       O      0.719340000000     0.280660000000     0.366000000000    -0.536159   
C1       C      0.719030000000     0.280970000000     0.473380000000     0.203569   
N1       N      0.682320000000     0.317680000000     0.452610000000    -0.296007   
O1       O      0.280660000000     0.719340000000     0.366000000000    -0.522816   
C5       C      0.280970000000     0.719030000000     0.473380000000     0.0941478  
O1       O      0.280660000000     0.280660000000     0.634000000000    -0.504846   
C2       C      0.280970000000     0.280970000000     0.526620000000    -0.141394   
O1       O      0.719340000000     0.719340000000     0.634000000000    -0.504446   
C4       C      0.719030000000     0.719030000000     0.526620000000    -0.0967692  
O1       O      0.780660000000     0.366000000000     0.219340000000    -0.504749   
C4       C      0.780970000000     0.473380000000     0.219030000000    -0.0950566  
O1       O      0.219340000000     0.366000000000     0.780660000000    -0.505214   
C2       C      0.219030000000     0.473380000000     0.780970000000    -0.140421   
O1       O      0.780660000000     0.634000000000     0.780660000000    -0.52281    
C5       C      0.780970000000     0.526620000000     0.780970000000     0.0916668  
O3       O      0.219340000000     0.634000000000     0.219340000000    -0.53554    
C1       C      0.219030000000     0.526620000000     0.219030000000     0.202878   
N1       N      0.182320000000     0.547390000000     0.182320000000    -0.296154   
O1       O      0.780660000000     0.219340000000     0.634000000000    -0.500098   
C4       C      0.780970000000     0.219030000000     0.526620000000    -0.0936978  
O1       O      0.219340000000     0.780660000000     0.634000000000    -0.502884   
C2       C      0.219030000000     0.780970000000     0.526620000000    -0.137273   
O3       O      0.780660000000     0.780660000000     0.366000000000    -0.537523   
C1       C      0.780970000000     0.780970000000     0.473380000000     0.204164   
N1       N      0.817680000000     0.817680000000     0.452610000000    -0.295841   
O1       O      0.219340000000     0.219340000000     0.366000000000    -0.526807   
C5       C      0.219030000000     0.219030000000     0.473380000000     0.0995749  
O1       O      0.719340000000     0.366000000000     0.719340000000    -0.503534   
C2       C      0.719030000000     0.473380000000     0.719030000000    -0.135486   
O1       O      0.280660000000     0.366000000000     0.280660000000    -0.505636   
C4       C      0.280970000000     0.473380000000     0.280970000000    -0.0911883  
O1       O      0.280660000000     0.634000000000     0.719340000000    -0.523708   
C5       C      0.280970000000     0.526620000000     0.719030000000     0.0977322  
O3       O      0.719340000000     0.634000000000     0.280660000000    -0.535056   
C1       C      0.719030000000     0.526620000000     0.280970000000     0.203661   
N1       N      0.682320000000     0.547390000000     0.317680000000    -0.296375   
O1       O      0.634000000000     0.280660000000     0.719340000000    -0.503053   
C8       C      0.610520000000     0.250000000000     0.750000000000     0.365179   
C3       C      0.555680000000     0.250000000000     0.750000000000    -0.0319393  
C2       C      0.526620000000     0.280970000000     0.719030000000    -0.13781    
O1       O      0.634000000000     0.719340000000     0.280660000000    -0.503159   
C8       C      0.610520000000     0.750000000000     0.250000000000     0.365925   
C3       C      0.555680000000     0.750000000000     0.250000000000    -0.0337071  
C4       C      0.526620000000     0.719030000000     0.280970000000    -0.0893016  
O1       O      0.366000000000     0.719340000000     0.719340000000    -0.52389    
C7       C      0.389480000000     0.750000000000     0.750000000000     0.458792   
C6       C      0.444320000000     0.750000000000     0.750000000000    -0.246569   
C5       C      0.473380000000     0.719030000000     0.719030000000     0.0999848  
O3       O      0.366000000000     0.280660000000     0.280660000000    -0.537171   
C7       C      0.389480000000     0.250000000000     0.250000000000     0.458738   
C6       C      0.444320000000     0.250000000000     0.250000000000    -0.246456   
C1       C      0.473380000000     0.280970000000     0.280970000000     0.20474    
N1       N      0.452610000000     0.317680000000     0.317680000000    -0.295749   
O1       O      0.634000000000     0.219340000000     0.219340000000    -0.50391    
C8       C      0.610520000000     0.250000000000     0.250000000000     0.365453   
C3       C      0.555680000000     0.250000000000     0.250000000000    -0.0325268  
C4       C      0.526620000000     0.219030000000     0.219030000000    -0.0924311  
O1       O      0.634000000000     0.780660000000     0.780660000000    -0.504603   
C8       C      0.610520000000     0.750000000000     0.750000000000     0.365454   
C3       C      0.555680000000     0.750000000000     0.750000000000    -0.0323752  
C2       C      0.526620000000     0.780970000000     0.780970000000    -0.137565   
O1       O      0.366000000000     0.219340000000     0.780660000000    -0.522833   
C7       C      0.389480000000     0.250000000000     0.750000000000     0.457818   
C6       C      0.444320000000     0.250000000000     0.750000000000    -0.245147   
C5       C      0.473380000000     0.219030000000     0.780970000000     0.0974351  
O3       O      0.366000000000     0.780660000000     0.219340000000    -0.535548   
C7       C      0.389480000000     0.750000000000     0.250000000000     0.456845   
C6       C      0.444320000000     0.750000000000     0.250000000000    -0.243032   
C1       C      0.473380000000     0.780970000000     0.219030000000     0.202005   
N1       N      0.452610000000     0.817680000000     0.182320000000    -0.295848   
O1       O      0.366000000000     0.719340000000     0.280660000000    -0.522815   
C5       C      0.473380000000     0.719030000000     0.280970000000     0.0928672  
O3       O      0.366000000000     0.280660000000     0.719340000000    -0.535875   
C1       C      0.473380000000     0.280970000000     0.719030000000     0.203169   
N1       N      0.452610000000     0.317680000000     0.682320000000    -0.296065   
O1       O      0.634000000000     0.280660000000     0.280660000000    -0.505252   
C2       C      0.526620000000     0.280970000000     0.280970000000    -0.140337   
O1       O      0.634000000000     0.719340000000     0.719340000000    -0.504493   
C4       C      0.526620000000     0.719030000000     0.719030000000    -0.0952012  
O3       O      0.366000000000     0.780660000000     0.780660000000    -0.537149   
C1       C      0.473380000000     0.780970000000     0.780970000000     0.203097   
N1       N      0.452610000000     0.817680000000     0.817680000000    -0.295563   
O1       O      0.366000000000     0.219340000000     0.219340000000    -0.523885   
C5       C      0.473380000000     0.219030000000     0.219030000000     0.0980151  
O1       O      0.634000000000     0.780660000000     0.219340000000    -0.503208   
C2       C      0.526620000000     0.780970000000     0.219030000000    -0.136352   
O1       O      0.634000000000     0.219340000000     0.780660000000    -0.503003   
C4       C      0.526620000000     0.219030000000     0.780970000000    -0.0923703  
H3       H      0.803570000000     0.545070000000     0.803570000000     0.0129705  
H2       H      0.804340000000     0.456960000000     0.804340000000     0.0673374  
H1       H      0.695660000000     0.456960000000     0.695660000000     0.0840574  
H1       H      0.695660000000     0.456960000000     0.304340000000     0.0839323  
H2       H      0.803570000000     0.454930000000     0.196430000000     0.071673   
H3       H      0.804340000000     0.543040000000     0.195660000000     0.00900956 
H2       H      0.545070000000     0.696430000000     0.696430000000     0.0720912  
H1       H      0.543040000000     0.804340000000     0.804340000000     0.0837258  
H3       H      0.456960000000     0.695660000000     0.695660000000     0.00908762 
H2       H      0.543040000000     0.695660000000     0.304340000000     0.0692431  
H3       H      0.454930000000     0.696430000000     0.303570000000     0.0129391  
H1       H      0.543040000000     0.804340000000     0.195660000000     0.0842713  
H1       H      0.545070000000     0.303570000000     0.303570000000     0.0860066  
H2       H      0.543040000000     0.195660000000     0.195660000000     0.0699745  
H3       H      0.456960000000     0.195660000000     0.195660000000     0.00947246 
H4       H      0.418010000000     0.321200000000     0.321200000000     0.152684   
H4       H      0.474220000000     0.337110000000     0.337110000000     0.128648   
H4       H      0.678800000000     0.581990000000     0.678800000000     0.155036   
H4       H      0.662890000000     0.525780000000     0.662890000000     0.12991    
H4       H      0.918010000000     0.321200000000     0.178800000000     0.154561   
H4       H      0.974220000000     0.337110000000     0.162890000000     0.129341   
H2       H      0.543040000000     0.195660000000     0.804340000000     0.0702692  
H1       H      0.543040000000     0.304340000000     0.695660000000     0.084694   
H3       H      0.456960000000     0.195660000000     0.804340000000     0.00996922 
H4       H      0.474220000000     0.337110000000     0.662890000000     0.129382   
H4       H      0.418010000000     0.321200000000     0.678800000000     0.154566   
H4       H      0.418010000000     0.821200000000     0.821200000000     0.152661   
H4       H      0.474220000000     0.837110000000     0.837110000000     0.128229   
H4       H      0.418010000000     0.821200000000     0.178800000000     0.154577   
H4       H      0.474220000000     0.837110000000     0.162890000000     0.129407   
H4       H      0.918010000000     0.821200000000     0.321200000000     0.152579   
H4       H      0.974220000000     0.837110000000     0.337110000000     0.128143   
H4       H      0.918010000000     0.821200000000     0.678800000000     0.154595   
H4       H      0.974220000000     0.837110000000     0.662890000000     0.129349   
H4       H      0.918010000000     0.321200000000     0.821200000000     0.152552   
H4       H      0.974220000000     0.337110000000     0.837110000000     0.12809    
H4       H      0.678800000000     0.081990000000     0.821200000000     0.155715   
H4       H      0.662890000000     0.025780000000     0.837110000000     0.129742   
H4       H      0.678800000000     0.081990000000     0.178800000000     0.155177   
H4       H      0.662890000000     0.025780000000     0.162890000000     0.129936   
H4       H      0.662890000000     0.337110000000     0.474220000000     0.128775   
H4       H      0.678800000000     0.321200000000     0.418010000000     0.153969   
H4       H      0.821200000000     0.321200000000     0.918010000000     0.15271    
H4       H      0.837110000000     0.337110000000     0.974220000000     0.128534   
H4       H      0.178800000000     0.081990000000     0.678800000000     0.155175   
H4       H      0.162890000000     0.025780000000     0.662890000000     0.129934   
H4       H      0.178800000000     0.321200000000     0.918010000000     0.153948   
H4       H      0.162890000000     0.337110000000     0.974220000000     0.128718   
H4       H      0.178800000000     0.081990000000     0.321200000000     0.155751   
H4       H      0.162890000000     0.025780000000     0.337110000000     0.129788   
H4       H      0.178800000000     0.581990000000     0.821200000000     0.15585    
H4       H      0.162890000000     0.525780000000     0.837110000000     0.130291   
H1       H      0.196430000000     0.454930000000     0.803570000000     0.0862271  
H2       H      0.304340000000     0.456960000000     0.695660000000     0.069488   
H3       H      0.304340000000     0.543040000000     0.695660000000     0.00940395 
H4       H      0.178800000000     0.821200000000     0.418010000000     0.153981   
H4       H      0.162890000000     0.837110000000     0.474220000000     0.1288     
H1       H      0.195660000000     0.804340000000     0.543040000000     0.0844654  
H2       H      0.304340000000     0.695660000000     0.543040000000     0.0713094  
H3       H      0.303570000000     0.696430000000     0.454930000000     0.0129065  
H3       H      0.195660000000     0.195660000000     0.456960000000     0.00734869 
H2       H      0.195660000000     0.195660000000     0.543040000000     0.0700603  
H1       H      0.303570000000     0.303570000000     0.545070000000     0.0867038  
H4       H      0.321200000000     0.321200000000     0.418010000000     0.152842   
H4       H      0.337110000000     0.337110000000     0.474220000000     0.129097   
H3       H      0.695660000000     0.695660000000     0.456960000000     0.00694642 
H4       H      0.821200000000     0.821200000000     0.418010000000     0.152821   
H4       H      0.837110000000     0.837110000000     0.474220000000     0.128673   
H2       H      0.696430000000     0.696430000000     0.545070000000     0.0722178  
H1       H      0.804340000000     0.804340000000     0.543040000000     0.0844323  
H1       H      0.695660000000     0.304340000000     0.543040000000     0.0848822  
H3       H      0.804340000000     0.195660000000     0.456960000000     0.00997597 
H2       H      0.804340000000     0.195660000000     0.543040000000     0.0723164  
H4       H      0.678800000000     0.821200000000     0.918010000000     0.153997   
H4       H      0.662890000000     0.837110000000     0.974220000000     0.128738   
H4       H      0.678800000000     0.581990000000     0.321200000000     0.155837   
H4       H      0.662890000000     0.525780000000     0.337110000000     0.12986    
H2       H      0.304340000000     0.456960000000     0.304340000000     0.0684368  
H3       H      0.304340000000     0.543040000000     0.304340000000     0.00993502 
H1       H      0.195660000000     0.456960000000     0.195660000000     0.0845637  
H4       H      0.162890000000     0.525780000000     0.162890000000     0.130029   
H4       H      0.178800000000     0.581990000000     0.178800000000     0.155234   
H4       H      0.321200000000     0.821200000000     0.918010000000     0.152735   
H4       H      0.337110000000     0.837110000000     0.974220000000     0.128581   
H3       H      0.956960000000     0.195660000000     0.304340000000     0.0101696  
H3       H      0.956960000000     0.195660000000     0.695660000000     0.0100078  
H3       H      0.956960000000     0.695660000000     0.804340000000     0.010141   
H3       H      0.956960000000     0.695660000000     0.195660000000     0.0100361  
H2       H      0.043040000000     0.695660000000     0.195660000000     0.0695373  
H3       H      0.804340000000     0.043040000000     0.304340000000     0.0101526  
H3       H      0.804340000000     0.043040000000     0.695660000000     0.0099128  
H3       H      0.304340000000     0.043040000000     0.804340000000     0.0101521  
H3       H      0.304340000000     0.043040000000     0.195660000000     0.00994026 
H3       H      0.695660000000     0.195660000000     0.956960000000     0.00789881 
H3       H      0.304340000000     0.195660000000     0.956960000000     0.0101899  
H3       H      0.195660000000     0.695660000000     0.956960000000     0.00791216 
H3       H      0.804340000000     0.695660000000     0.956960000000     0.010163   
H1       H      0.304340000000     0.804340000000     0.043040000000     0.0840425  
H2       H      0.195660000000     0.695660000000     0.043040000000     0.0696102  
H2       H      0.304340000000     0.195660000000     0.043040000000     0.072131   
H1       H      0.195660000000     0.304340000000     0.043040000000     0.0847369  
H2       H      0.695660000000     0.195660000000     0.043040000000     0.0695752  
H1       H      0.804340000000     0.304340000000     0.043040000000     0.0839934  
H1       H      0.695660000000     0.804340000000     0.043040000000     0.0847478  
H2       H      0.804340000000     0.695660000000     0.043040000000     0.0721383  
H2       H      0.043040000000     0.195660000000     0.304340000000     0.0700976  
H1       H      0.043040000000     0.304340000000     0.195660000000     0.0845626  
H1       H      0.043040000000     0.804340000000     0.304340000000     0.0833527  
H1       H      0.043040000000     0.804340000000     0.695660000000     0.0845677  
H2       H      0.043040000000     0.195660000000     0.695660000000     0.0694977  
H1       H      0.043040000000     0.304340000000     0.804340000000     0.0832954  
H2       H      0.043040000000     0.695660000000     0.804340000000     0.0700897  
H1       H      0.695660000000     0.956960000000     0.195660000000     0.0844092  
H2       H      0.804340000000     0.956960000000     0.304340000000     0.0682498  
H2       H      0.804340000000     0.956960000000     0.695660000000     0.0690663  
H1       H      0.695660000000     0.956960000000     0.804340000000     0.0835632  
H2       H      0.304340000000     0.956960000000     0.804340000000     0.068249   
H1       H      0.195660000000     0.956960000000     0.695660000000     0.0844077  
H2       H      0.304340000000     0.956960000000     0.195660000000     0.0690999  
H1       H      0.195660000000     0.956960000000     0.304340000000     0.0835933  


