data_CHA_SI

_audit_creation_method RASPA-1.0
_audit_creation_date 2013-2-5
_audit_author_name 'David Dubbeldam'

_citation_author_name        'M. Calligaris, G. Nardin, and L. Randaccio'
_citation_title              'Cation site location in hydrated chabazites - crystal structure of potassium-exchanged and silver-exchanged chabazites'
_citation_journal_abbrev     'Zeolites'
_citation_journal_volume     3
_citation_page_first         205
_citation_page_last          208
_citation_year               1983

_cell_length_a    9.459
_cell_length_b    9.459
_cell_length_c    9.459
_cell_angle_alpha 94.07
_cell_angle_beta  94.07
_cell_angle_gamma 94.07
_cell_volume      839.598

_symmetry_cell_setting          trigonal
_symmetry_space_group_name_Hall 'P 1'
_symmetry_space_group_name_H-M  'P 1'
_symmetry_Int_Tables_number     1

_symmetry_equiv_pos_as_xyz 'x,y,z'

loop_
_atom_site_label
_atom_site_type_symbol
_atom_site_fract_x
_atom_site_fract_y
_atom_site_fract_z
_atom_site_charge
O        O      0.2665       0.7335       0           -1.025      
O        O      0.1506       0.8494       0.5         -1.025      
O        O      0.2503       0.2503       0.893       -1.025      
O        O      0.0204       0.0204       0.3193      -1.025      
O        O      0            0.2665       0.7335      -1.025      
O        O      0.5          0.1506       0.8494      -1.025      
O        O      0.893        0.2503       0.2503      -1.025      
O        O      0.3193       0.0204       0.0204      -1.025      
O        O      0.7335       0            0.2665      -1.025      
O        O      0.8494       0.5          0.1506      -1.025      
O        O      0.2503       0.893        0.2503      -1.025      
O        O      0.0204       0.3193       0.0204      -1.025      
O        O      0.7497       0.7497       0.107       -1.025      
O        O      0.9796       0.9796       0.6807      -1.025      
O        O      0.107        0.7497       0.7497      -1.025      
O        O      0.6807       0.9796       0.9796      -1.025      
O        O      0.7497       0.107        0.7497      -1.025      
O        O      0.9796       0.6807       0.9796      -1.025      
O        O      0.7335       0.2665       0           -1.025      
O        O      0.8494       0.1506       0.5         -1.025      
O        O      0            0.7335       0.2665      -1.025      
O        O      0.5          0.8494       0.1506      -1.025      
O        O      0.2665       0            0.7335      -1.025      
O        O      0.1506       0.5          0.8494      -1.025      
Si       Si     0.1033       0.3331       0.8743      -1.025      
Si       Si     0.8743       0.1033       0.3331      -1.025      
Si       Si     0.3331       0.8743       0.1033      -1.025      
Si       Si     0.6669       0.8967       0.1257      -1.025      
Si       Si     0.1257       0.6669       0.8967      -1.025      
Si       Si     0.8967       0.1257       0.6669      -1.025      
Si       Si     0.8967       0.6669       0.1257      -1.025      
Si       Si     0.1257       0.8967       0.6669      -1.025      
Si       Si     0.6669       0.1257       0.8967      -1.025      
Si       Si     0.3331       0.1033       0.8743      -1.025      
Si       Si     0.8743       0.3331       0.1033      -1.025      
Si       Si     0.1033       0.8743       0.3331      -1.025      


