data_NaX

_audit_creation_method RASPA-1.0
_audit_creation_date 2014-11-30
_audit_author_name 'David Dubbeldam'

_citation_author_name        'D.H. Olson'
_citation_title              'The crystal structure of dehydrated NaX'
_citation_journal_abbrev     'Zeolites'
_citation_journal_volume     15
_citation_page_first         439
_citation_page_last          443
_citation_year               1995

_cell_length_a    25.099
_cell_length_b    25.099
_cell_length_c    25.099
_cell_angle_alpha 90
_cell_angle_beta  90
_cell_angle_gamma 90
_cell_volume      15811.4

_symmetry_cell_setting          cubic
_symmetry_space_group_name_Hall 'P 1'
_symmetry_space_group_name_H-M  'P 1'
_symmetry_Int_Tables_number     1

_symmetry_equiv_pos_as_xyz 'x,y,z'

loop_
_atom_site_label
_atom_site_type_symbol
_atom_site_fract_x
_atom_site_fract_y
_atom_site_fract_z
_atom_site_charge
Si1      Si4+   0.946190000000     0.125650000000     0.035080000000     0          
Si1      Si4+   0.944760000000     0.036390000000     0.124180000000     0          
Si1      Si4+   0.303810000000     0.124350000000     0.035080000000     0          
Si1      Si4+   0.946190000000     0.124350000000     0.214920000000     0          
Si1      Si4+   0.303810000000     0.125650000000     0.214920000000     0          
Si1      Si4+   0.035080000000     0.946190000000     0.125650000000     0          
Si1      Si4+   0.214920000000     0.303810000000     0.125650000000     0          
Si1      Si4+   0.035080000000     0.303810000000     0.124350000000     0          
Si1      Si4+   0.124180000000     0.305240000000     0.213610000000     0          
Si1      Si4+   0.214920000000     0.946190000000     0.124350000000     0          
Si1      Si4+   0.125650000000     0.035080000000     0.946190000000     0          
Si1      Si4+   0.125650000000     0.214920000000     0.303810000000     0          
Si1      Si4+   0.036390000000     0.125820000000     0.305240000000     0          
Si1      Si4+   0.124350000000     0.035080000000     0.303810000000     0          
Si1      Si4+   0.124350000000     0.214920000000     0.946190000000     0          
Si1      Si4+   0.053810000000     0.874350000000     0.964920000000     0          
Si1      Si4+   0.696190000000     0.875650000000     0.964920000000     0          
Si1      Si4+   0.053810000000     0.875650000000     0.785080000000     0          
Si1      Si4+   0.055240000000     0.786390000000     0.874180000000     0          
Si1      Si4+   0.696190000000     0.874350000000     0.785080000000     0          
Si1      Si4+   0.694760000000     0.963610000000     0.874180000000     0          
Si1      Si4+   0.964920000000     0.053810000000     0.874350000000     0          
Si1      Si4+   0.875820000000     0.055240000000     0.963610000000     0          
Si1      Si4+   0.785080000000     0.696190000000     0.874350000000     0          
Si1      Si4+   0.964920000000     0.696190000000     0.875650000000     0          
Si1      Si4+   0.785080000000     0.053810000000     0.875650000000     0          
Si1      Si4+   0.874350000000     0.964920000000     0.053810000000     0          
Si1      Si4+   0.874350000000     0.785080000000     0.696190000000     0          
Si1      Si4+   0.875650000000     0.964920000000     0.696190000000     0          
Si1      Si4+   0.875650000000     0.785080000000     0.053810000000     0          
Si1      Si4+   0.786390000000     0.874180000000     0.055240000000     0          
Si1      Si4+   0.946190000000     0.625650000000     0.535080000000     0          
Si1      Si4+   0.303810000000     0.624350000000     0.535080000000     0          
Si1      Si4+   0.946190000000     0.624350000000     0.714920000000     0          
Si1      Si4+   0.944760000000     0.713610000000     0.625820000000     0          
Si1      Si4+   0.303810000000     0.625650000000     0.714920000000     0          
Si1      Si4+   0.035080000000     0.446190000000     0.625650000000     0          
Si1      Si4+   0.214920000000     0.803810000000     0.625650000000     0          
Si1      Si4+   0.035080000000     0.803810000000     0.624350000000     0          
Si1      Si4+   0.214920000000     0.446190000000     0.624350000000     0          
Si1      Si4+   0.125650000000     0.535080000000     0.446190000000     0          
Si1      Si4+   0.036390000000     0.624180000000     0.444760000000     0          
Si1      Si4+   0.125650000000     0.714920000000     0.803810000000     0          
Si1      Si4+   0.036390000000     0.625820000000     0.805240000000     0          
Si1      Si4+   0.124350000000     0.535080000000     0.803810000000     0          
Si1      Si4+   0.213610000000     0.624180000000     0.805240000000     0          
Si1      Si4+   0.124350000000     0.714920000000     0.446190000000     0          
Si1      Si4+   0.213610000000     0.625820000000     0.444760000000     0          
Si1      Si4+   0.053810000000     0.374350000000     0.464920000000     0          
Si1      Si4+   0.055240000000     0.463610000000     0.375820000000     0          
Si1      Si4+   0.696190000000     0.375650000000     0.464920000000     0          
Si1      Si4+   0.053810000000     0.375650000000     0.285080000000     0          
Si1      Si4+   0.055240000000     0.286390000000     0.374180000000     0          
Si1      Si4+   0.696190000000     0.374350000000     0.285080000000     0          
Si1      Si4+   0.964920000000     0.553810000000     0.374350000000     0          
Si1      Si4+   0.785080000000     0.196190000000     0.374350000000     0          
Si1      Si4+   0.964920000000     0.196190000000     0.375650000000     0          
Si1      Si4+   0.875820000000     0.194760000000     0.286390000000     0          
Si1      Si4+   0.785080000000     0.553810000000     0.375650000000     0          
Si1      Si4+   0.874350000000     0.464920000000     0.553810000000     0          
Si1      Si4+   0.874350000000     0.285080000000     0.196190000000     0          
Si1      Si4+   0.875650000000     0.464920000000     0.196190000000     0          
Si1      Si4+   0.875650000000     0.285080000000     0.553810000000     0          
Si1      Si4+   0.786390000000     0.374180000000     0.555240000000     0          
Si1      Si4+   0.446190000000     0.125650000000     0.535080000000     0          
Si1      Si4+   0.444760000000     0.036390000000     0.624180000000     0          
Si1      Si4+   0.803810000000     0.124350000000     0.535080000000     0          
Si1      Si4+   0.805240000000     0.213610000000     0.624180000000     0          
Si1      Si4+   0.446190000000     0.124350000000     0.714920000000     0          
Si1      Si4+   0.803810000000     0.125650000000     0.714920000000     0          
Si1      Si4+   0.805240000000     0.036390000000     0.625820000000     0          
Si1      Si4+   0.535080000000     0.946190000000     0.625650000000     0          
Si1      Si4+   0.714920000000     0.303810000000     0.625650000000     0          
Si1      Si4+   0.625820000000     0.305240000000     0.536390000000     0          
Si1      Si4+   0.535080000000     0.303810000000     0.624350000000     0          
Si1      Si4+   0.624180000000     0.305240000000     0.713610000000     0          
Si1      Si4+   0.714920000000     0.946190000000     0.624350000000     0          
Si1      Si4+   0.625820000000     0.944760000000     0.713610000000     0          
Si1      Si4+   0.625650000000     0.035080000000     0.446190000000     0          
Si1      Si4+   0.625650000000     0.214920000000     0.803810000000     0          
Si1      Si4+   0.536390000000     0.125820000000     0.805240000000     0          
Si1      Si4+   0.624350000000     0.035080000000     0.803810000000     0          
Si1      Si4+   0.713610000000     0.124180000000     0.805240000000     0          
Si1      Si4+   0.624350000000     0.214920000000     0.446190000000     0          
Si1      Si4+   0.553810000000     0.874350000000     0.464920000000     0          
Si1      Si4+   0.196190000000     0.875650000000     0.464920000000     0          
Si1      Si4+   0.553810000000     0.875650000000     0.285080000000     0          
Si1      Si4+   0.555240000000     0.786390000000     0.374180000000     0          
Si1      Si4+   0.196190000000     0.874350000000     0.285080000000     0          
Si1      Si4+   0.194760000000     0.963610000000     0.374180000000     0          
Si1      Si4+   0.464920000000     0.053810000000     0.374350000000     0          
Si1      Si4+   0.375820000000     0.055240000000     0.463610000000     0          
Si1      Si4+   0.285080000000     0.696190000000     0.374350000000     0          
Si1      Si4+   0.464920000000     0.696190000000     0.375650000000     0          
Si1      Si4+   0.285080000000     0.053810000000     0.375650000000     0          
Si1      Si4+   0.374350000000     0.964920000000     0.553810000000     0          
Si1      Si4+   0.463610000000     0.875820000000     0.555240000000     0          
Si1      Si4+   0.374350000000     0.785080000000     0.196190000000     0          
Si1      Si4+   0.463610000000     0.874180000000     0.194760000000     0          
Si1      Si4+   0.375650000000     0.964920000000     0.196190000000     0          
Si1      Si4+   0.286390000000     0.875820000000     0.194760000000     0          
Si1      Si4+   0.375650000000     0.785080000000     0.553810000000     0          
Si1      Si4+   0.446190000000     0.625650000000     0.035080000000     0          
Si1      Si4+   0.803810000000     0.624350000000     0.035080000000     0          
Si1      Si4+   0.805240000000     0.713610000000     0.124180000000     0          
Si1      Si4+   0.446190000000     0.624350000000     0.214920000000     0          
Si1      Si4+   0.803810000000     0.625650000000     0.214920000000     0          
Si1      Si4+   0.805240000000     0.536390000000     0.125820000000     0          
Si1      Si4+   0.535080000000     0.446190000000     0.125650000000     0          
Si1      Si4+   0.714920000000     0.803810000000     0.125650000000     0          
Si1      Si4+   0.625820000000     0.805240000000     0.036390000000     0          
Si1      Si4+   0.535080000000     0.803810000000     0.124350000000     0          
Si1      Si4+   0.714920000000     0.446190000000     0.124350000000     0          
Si1      Si4+   0.625650000000     0.535080000000     0.946190000000     0          
Si1      Si4+   0.536390000000     0.624180000000     0.944760000000     0          
Si1      Si4+   0.625650000000     0.714920000000     0.303810000000     0          
Si1      Si4+   0.624350000000     0.535080000000     0.303810000000     0          
Si1      Si4+   0.624350000000     0.714920000000     0.946190000000     0          
Si1      Si4+   0.713610000000     0.625820000000     0.944760000000     0          
Si1      Si4+   0.553810000000     0.374350000000     0.964920000000     0          
Si1      Si4+   0.196190000000     0.375650000000     0.964920000000     0          
Si1      Si4+   0.553810000000     0.375650000000     0.785080000000     0          
Si1      Si4+   0.196190000000     0.374350000000     0.785080000000     0          
Si1      Si4+   0.464920000000     0.553810000000     0.874350000000     0          
Si1      Si4+   0.285080000000     0.196190000000     0.874350000000     0          
Si1      Si4+   0.464920000000     0.196190000000     0.875650000000     0          
Si1      Si4+   0.285080000000     0.553810000000     0.875650000000     0          
Si1      Si4+   0.374350000000     0.464920000000     0.053810000000     0          
Si1      Si4+   0.463610000000     0.375820000000     0.055240000000     0          
Si1      Si4+   0.374350000000     0.285080000000     0.696190000000     0          
Si1      Si4+   0.463610000000     0.374180000000     0.694760000000     0          
Si1      Si4+   0.375650000000     0.464920000000     0.696190000000     0          
Si1      Si4+   0.286390000000     0.375820000000     0.694760000000     0          
Si1      Si4+   0.375650000000     0.285080000000     0.053810000000     0          
Al1      Al3+   0.305240000000     0.213610000000     0.124180000000     0          
Al1      Al3+   0.944760000000     0.213610000000     0.125820000000     0          
Al1      Al3+   0.305240000000     0.036390000000     0.125820000000     0          
Al1      Al3+   0.124180000000     0.944760000000     0.036390000000     0          
Al1      Al3+   0.125820000000     0.305240000000     0.036390000000     0          
Al1      Al3+   0.125820000000     0.944760000000     0.213610000000     0          
Al1      Al3+   0.036390000000     0.124180000000     0.944760000000     0          
Al1      Al3+   0.213610000000     0.124180000000     0.305240000000     0          
Al1      Al3+   0.213610000000     0.125820000000     0.944760000000     0          
Al1      Al3+   0.055240000000     0.963610000000     0.875820000000     0          
Al1      Al3+   0.694760000000     0.786390000000     0.875820000000     0          
Al1      Al3+   0.874180000000     0.694760000000     0.963610000000     0          
Al1      Al3+   0.875820000000     0.694760000000     0.786390000000     0          
Al1      Al3+   0.874180000000     0.055240000000     0.786390000000     0          
Al1      Al3+   0.963610000000     0.875820000000     0.055240000000     0          
Al1      Al3+   0.963610000000     0.874180000000     0.694760000000     0          
Al1      Al3+   0.786390000000     0.875820000000     0.694760000000     0          
Al1      Al3+   0.944760000000     0.536390000000     0.624180000000     0          
Al1      Al3+   0.305240000000     0.713610000000     0.624180000000     0          
Al1      Al3+   0.305240000000     0.536390000000     0.625820000000     0          
Al1      Al3+   0.124180000000     0.444760000000     0.536390000000     0          
Al1      Al3+   0.125820000000     0.805240000000     0.536390000000     0          
Al1      Al3+   0.124180000000     0.805240000000     0.713610000000     0          
Al1      Al3+   0.125820000000     0.444760000000     0.713610000000     0          
Al1      Al3+   0.694760000000     0.286390000000     0.375820000000     0          
Al1      Al3+   0.694760000000     0.463610000000     0.374180000000     0          
Al1      Al3+   0.875820000000     0.555240000000     0.463610000000     0          
Al1      Al3+   0.874180000000     0.194760000000     0.463610000000     0          
Al1      Al3+   0.874180000000     0.555240000000     0.286390000000     0          
Al1      Al3+   0.963610000000     0.375820000000     0.555240000000     0          
Al1      Al3+   0.963610000000     0.374180000000     0.194760000000     0          
Al1      Al3+   0.786390000000     0.375820000000     0.194760000000     0          
Al1      Al3+   0.444760000000     0.213610000000     0.625820000000     0          
Al1      Al3+   0.624180000000     0.944760000000     0.536390000000     0          
Al1      Al3+   0.536390000000     0.124180000000     0.444760000000     0          
Al1      Al3+   0.713610000000     0.125820000000     0.444760000000     0          
Al1      Al3+   0.555240000000     0.963610000000     0.375820000000     0          
Al1      Al3+   0.194760000000     0.786390000000     0.375820000000     0          
Al1      Al3+   0.374180000000     0.694760000000     0.463610000000     0          
Al1      Al3+   0.375820000000     0.694760000000     0.286390000000     0          
Al1      Al3+   0.374180000000     0.055240000000     0.286390000000     0          
Al1      Al3+   0.286390000000     0.874180000000     0.555240000000     0          
Al1      Al3+   0.444760000000     0.536390000000     0.124180000000     0          
Al1      Al3+   0.444760000000     0.713610000000     0.125820000000     0          
Al1      Al3+   0.624180000000     0.444760000000     0.036390000000     0          
Al1      Al3+   0.624180000000     0.805240000000     0.213610000000     0          
Al1      Al3+   0.625820000000     0.444760000000     0.213610000000     0          
Al1      Al3+   0.536390000000     0.625820000000     0.305240000000     0          
Al1      Al3+   0.713610000000     0.624180000000     0.305240000000     0          
Al1      Al3+   0.555240000000     0.463610000000     0.875820000000     0          
Al1      Al3+   0.194760000000     0.286390000000     0.875820000000     0          
Al1      Al3+   0.555240000000     0.286390000000     0.874180000000     0          
Al1      Al3+   0.194760000000     0.463610000000     0.874180000000     0          
Al1      Al3+   0.375820000000     0.555240000000     0.963610000000     0          
Al1      Al3+   0.374180000000     0.194760000000     0.963610000000     0          
Al1      Al3+   0.375820000000     0.194760000000     0.786390000000     0          
Al1      Al3+   0.374180000000     0.555240000000     0.786390000000     0          
Al1      Al3+   0.286390000000     0.374180000000     0.055240000000     0          
O1       O2-    0.890100000000     0.000300000000     0.105600000000     0          
O1       O2-    0.105600000000     0.359900000000     0.249700000000     0          
O1       O2-    0.000300000000     0.144400000000     0.359900000000     0          
O1       O2-    0.109900000000     0.750300000000     0.855600000000     0          
O1       O2-    0.640100000000     0.999700000000     0.855600000000     0          
O1       O2-    0.894400000000     0.109900000000     0.999700000000     0          
O1       O2-    0.750300000000     0.855600000000     0.109900000000     0          
O1       O2-    0.890100000000     0.749700000000     0.644400000000     0          
O1       O2-    0.000300000000     0.605600000000     0.390100000000     0          
O1       O2-    0.000300000000     0.644400000000     0.859900000000     0          
O1       O2-    0.249700000000     0.605600000000     0.859900000000     0          
O1       O2-    0.249700000000     0.644400000000     0.390100000000     0          
O1       O2-    0.109900000000     0.499700000000     0.394400000000     0          
O1       O2-    0.109900000000     0.250300000000     0.355600000000     0          
O1       O2-    0.894400000000     0.140100000000     0.250300000000     0          
O1       O2-    0.750300000000     0.355600000000     0.609900000000     0          
O1       O2-    0.390100000000     0.000300000000     0.605600000000     0          
O1       O2-    0.859900000000     0.249700000000     0.605600000000     0          
O1       O2-    0.859900000000     0.000300000000     0.644400000000     0          
O1       O2-    0.644400000000     0.359900000000     0.500300000000     0          
O1       O2-    0.605600000000     0.359900000000     0.749700000000     0          
O1       O2-    0.644400000000     0.890100000000     0.749700000000     0          
O1       O2-    0.500300000000     0.144400000000     0.859900000000     0          
O1       O2-    0.749700000000     0.105600000000     0.859900000000     0          
O1       O2-    0.609900000000     0.750300000000     0.355600000000     0          
O1       O2-    0.140100000000     0.999700000000     0.355600000000     0          
O1       O2-    0.394400000000     0.109900000000     0.499700000000     0          
O1       O2-    0.499700000000     0.894400000000     0.609900000000     0          
O1       O2-    0.499700000000     0.855600000000     0.140100000000     0          
O1       O2-    0.250300000000     0.894400000000     0.140100000000     0          
O1       O2-    0.859900000000     0.749700000000     0.105600000000     0          
O1       O2-    0.859900000000     0.500300000000     0.144400000000     0          
O1       O2-    0.644400000000     0.859900000000     0.000300000000     0          
O1       O2-    0.500300000000     0.605600000000     0.890100000000     0          
O1       O2-    0.749700000000     0.644400000000     0.890100000000     0          
O1       O2-    0.499700000000     0.394400000000     0.109900000000     0          
O1       O2-    0.499700000000     0.355600000000     0.640100000000     0          
O1       O2-    0.250300000000     0.394400000000     0.640100000000     0          
O2       O2-    0.998900000000     0.997200000000     0.141600000000     0          
O2       O2-    0.141600000000     0.251100000000     0.252800000000     0          
O2       O2-    0.997200000000     0.108400000000     0.251100000000     0          
O2       O2-    0.001100000000     0.747200000000     0.891600000000     0          
O2       O2-    0.748900000000     0.002800000000     0.891600000000     0          
O2       O2-    0.858400000000     0.001100000000     0.002800000000     0          
O2       O2-    0.747200000000     0.891600000000     0.001100000000     0          
O2       O2-    0.998900000000     0.752800000000     0.608400000000     0          
O2       O2-    0.997200000000     0.641600000000     0.498900000000     0          
O2       O2-    0.997200000000     0.608400000000     0.751100000000     0          
O2       O2-    0.252800000000     0.641600000000     0.751100000000     0          
O2       O2-    0.252800000000     0.608400000000     0.498900000000     0          
O2       O2-    0.001100000000     0.502800000000     0.358400000000     0          
O2       O2-    0.001100000000     0.247200000000     0.391600000000     0          
O2       O2-    0.858400000000     0.248900000000     0.247200000000     0          
O2       O2-    0.747200000000     0.391600000000     0.501100000000     0          
O2       O2-    0.498900000000     0.997200000000     0.641600000000     0          
O2       O2-    0.751100000000     0.252800000000     0.641600000000     0          
O2       O2-    0.751100000000     0.997200000000     0.608400000000     0          
O2       O2-    0.608400000000     0.251100000000     0.497200000000     0          
O2       O2-    0.641600000000     0.251100000000     0.752800000000     0          
O2       O2-    0.608400000000     0.998900000000     0.752800000000     0          
O2       O2-    0.497200000000     0.108400000000     0.751100000000     0          
O2       O2-    0.752800000000     0.141600000000     0.751100000000     0          
O2       O2-    0.501100000000     0.747200000000     0.391600000000     0          
O2       O2-    0.248900000000     0.002800000000     0.391600000000     0          
O2       O2-    0.358400000000     0.001100000000     0.502800000000     0          
O2       O2-    0.502800000000     0.858400000000     0.501100000000     0          
O2       O2-    0.502800000000     0.891600000000     0.248900000000     0          
O2       O2-    0.247200000000     0.858400000000     0.248900000000     0          
O2       O2-    0.751100000000     0.752800000000     0.141600000000     0          
O2       O2-    0.751100000000     0.497200000000     0.108400000000     0          
O2       O2-    0.608400000000     0.751100000000     0.997200000000     0          
O2       O2-    0.497200000000     0.641600000000     0.998900000000     0          
O2       O2-    0.752800000000     0.608400000000     0.998900000000     0          
O2       O2-    0.502800000000     0.358400000000     0.001100000000     0          
O2       O2-    0.502800000000     0.391600000000     0.748900000000     0          
O2       O2-    0.247200000000     0.358400000000     0.748900000000     0          
O3       O2-    0.965400000000     0.075800000000     0.071100000000     0          
O3       O2-    0.071100000000     0.284600000000     0.174200000000     0          
O3       O2-    0.075800000000     0.178900000000     0.284600000000     0          
O3       O2-    0.034600000000     0.825800000000     0.821100000000     0          
O3       O2-    0.715400000000     0.924200000000     0.821100000000     0          
O3       O2-    0.928900000000     0.034600000000     0.924200000000     0          
O3       O2-    0.825800000000     0.821100000000     0.034600000000     0          
O3       O2-    0.965400000000     0.674200000000     0.678900000000     0          
O3       O2-    0.075800000000     0.571100000000     0.465400000000     0          
O3       O2-    0.075800000000     0.678900000000     0.784600000000     0          
O3       O2-    0.174200000000     0.571100000000     0.784600000000     0          
O3       O2-    0.174200000000     0.678900000000     0.465400000000     0          
O3       O2-    0.034600000000     0.424200000000     0.428900000000     0          
O3       O2-    0.034600000000     0.325800000000     0.321100000000     0          
O3       O2-    0.928900000000     0.215400000000     0.325800000000     0          
O3       O2-    0.825800000000     0.321100000000     0.534600000000     0          
O3       O2-    0.465400000000     0.075800000000     0.571100000000     0          
O3       O2-    0.784600000000     0.174200000000     0.571100000000     0          
O3       O2-    0.784600000000     0.075800000000     0.678900000000     0          
O3       O2-    0.678900000000     0.284600000000     0.575800000000     0          
O3       O2-    0.571100000000     0.284600000000     0.674200000000     0          
O3       O2-    0.678900000000     0.965400000000     0.674200000000     0          
O3       O2-    0.575800000000     0.178900000000     0.784600000000     0          
O3       O2-    0.674200000000     0.071100000000     0.784600000000     0          
O3       O2-    0.534600000000     0.825800000000     0.321100000000     0          
O3       O2-    0.215400000000     0.924200000000     0.321100000000     0          
O3       O2-    0.428900000000     0.034600000000     0.424200000000     0          
O3       O2-    0.424200000000     0.928900000000     0.534600000000     0          
O3       O2-    0.424200000000     0.821100000000     0.215400000000     0          
O3       O2-    0.325800000000     0.928900000000     0.215400000000     0          
O3       O2-    0.784600000000     0.674200000000     0.071100000000     0          
O3       O2-    0.784600000000     0.575800000000     0.178900000000     0          
O3       O2-    0.678900000000     0.784600000000     0.075800000000     0          
O3       O2-    0.575800000000     0.571100000000     0.965400000000     0          
O3       O2-    0.674200000000     0.678900000000     0.965400000000     0          
O3       O2-    0.424200000000     0.428900000000     0.034600000000     0          
O3       O2-    0.424200000000     0.321100000000     0.715400000000     0          
O3       O2-    0.325800000000     0.428900000000     0.715400000000     0          
O4       O2-    0.930700000000     0.072600000000     0.180000000000     0          
O4       O2-    0.180000000000     0.319300000000     0.177400000000     0          
O4       O2-    0.072600000000     0.070000000000     0.319300000000     0          
O4       O2-    0.069300000000     0.822600000000     0.930000000000     0          
O4       O2-    0.680700000000     0.927400000000     0.930000000000     0          
O4       O2-    0.820000000000     0.069300000000     0.927400000000     0          
O4       O2-    0.822600000000     0.930000000000     0.069300000000     0          
O4       O2-    0.930700000000     0.677400000000     0.570000000000     0          
O4       O2-    0.072600000000     0.680000000000     0.430700000000     0          
O4       O2-    0.072600000000     0.570000000000     0.819300000000     0          
O4       O2-    0.177400000000     0.680000000000     0.819300000000     0          
O4       O2-    0.177400000000     0.570000000000     0.430700000000     0          
O4       O2-    0.069300000000     0.427400000000     0.320000000000     0          
O4       O2-    0.069300000000     0.322600000000     0.430000000000     0          
O4       O2-    0.820000000000     0.180700000000     0.322600000000     0          
O4       O2-    0.822600000000     0.430000000000     0.569300000000     0          
O4       O2-    0.430700000000     0.072600000000     0.680000000000     0          
O4       O2-    0.819300000000     0.177400000000     0.680000000000     0          
O4       O2-    0.819300000000     0.072600000000     0.570000000000     0          
O4       O2-    0.570000000000     0.319300000000     0.572600000000     0          
O4       O2-    0.680000000000     0.319300000000     0.677400000000     0          
O4       O2-    0.570000000000     0.930700000000     0.677400000000     0          
O4       O2-    0.572600000000     0.070000000000     0.819300000000     0          
O4       O2-    0.677400000000     0.180000000000     0.819300000000     0          
O4       O2-    0.569300000000     0.822600000000     0.430000000000     0          
O4       O2-    0.180700000000     0.927400000000     0.430000000000     0          
O4       O2-    0.320000000000     0.069300000000     0.427400000000     0          
O4       O2-    0.427400000000     0.820000000000     0.569300000000     0          
O4       O2-    0.427400000000     0.930000000000     0.180700000000     0          
O4       O2-    0.322600000000     0.820000000000     0.180700000000     0          
O4       O2-    0.819300000000     0.677400000000     0.180000000000     0          
O4       O2-    0.819300000000     0.572600000000     0.070000000000     0          
O4       O2-    0.570000000000     0.819300000000     0.072600000000     0          
O4       O2-    0.572600000000     0.680000000000     0.930700000000     0          
O4       O2-    0.677400000000     0.570000000000     0.930700000000     0          
O4       O2-    0.427400000000     0.320000000000     0.069300000000     0          
O4       O2-    0.427400000000     0.430000000000     0.680700000000     0          
O4       O2-    0.322600000000     0.320000000000     0.680700000000     0          
Oa1      O2-    0.359900000000     0.249700000000     0.105600000000     0          
Oa1      O2-    0.890100000000     0.249700000000     0.144400000000     0          
Oa1      O2-    0.359900000000     0.000300000000     0.144400000000     0          
Oa1      O2-    0.105600000000     0.890100000000     0.000300000000     0          
Oa1      O2-    0.144400000000     0.359900000000     0.000300000000     0          
Oa1      O2-    0.144400000000     0.890100000000     0.249700000000     0          
Oa1      O2-    0.000300000000     0.105600000000     0.890100000000     0          
Oa1      O2-    0.249700000000     0.105600000000     0.359900000000     0          
Oa1      O2-    0.249700000000     0.144400000000     0.890100000000     0          
Oa1      O2-    0.109900000000     0.999700000000     0.894400000000     0          
Oa1      O2-    0.640100000000     0.750300000000     0.894400000000     0          
Oa1      O2-    0.855600000000     0.640100000000     0.999700000000     0          
Oa1      O2-    0.894400000000     0.640100000000     0.750300000000     0          
Oa1      O2-    0.855600000000     0.109900000000     0.750300000000     0          
Oa1      O2-    0.999700000000     0.894400000000     0.109900000000     0          
Oa1      O2-    0.999700000000     0.855600000000     0.640100000000     0          
Oa1      O2-    0.750300000000     0.894400000000     0.640100000000     0          
Oa1      O2-    0.890100000000     0.500300000000     0.605600000000     0          
Oa1      O2-    0.359900000000     0.749700000000     0.605600000000     0          
Oa1      O2-    0.359900000000     0.500300000000     0.644400000000     0          
Oa1      O2-    0.105600000000     0.390100000000     0.500300000000     0          
Oa1      O2-    0.144400000000     0.859900000000     0.500300000000     0          
Oa1      O2-    0.105600000000     0.859900000000     0.749700000000     0          
Oa1      O2-    0.144400000000     0.390100000000     0.749700000000     0          
Oa1      O2-    0.640100000000     0.250300000000     0.394400000000     0          
Oa1      O2-    0.640100000000     0.499700000000     0.355600000000     0          
Oa1      O2-    0.894400000000     0.609900000000     0.499700000000     0          
Oa1      O2-    0.855600000000     0.140100000000     0.499700000000     0          
Oa1      O2-    0.855600000000     0.609900000000     0.250300000000     0          
Oa1      O2-    0.999700000000     0.394400000000     0.609900000000     0          
Oa1      O2-    0.999700000000     0.355600000000     0.140100000000     0          
Oa1      O2-    0.750300000000     0.394400000000     0.140100000000     0          
Oa1      O2-    0.390100000000     0.249700000000     0.644400000000     0          
Oa1      O2-    0.605600000000     0.890100000000     0.500300000000     0          
Oa1      O2-    0.500300000000     0.105600000000     0.390100000000     0          
Oa1      O2-    0.749700000000     0.144400000000     0.390100000000     0          
Oa1      O2-    0.609900000000     0.999700000000     0.394400000000     0          
Oa1      O2-    0.140100000000     0.750300000000     0.394400000000     0          
Oa1      O2-    0.355600000000     0.640100000000     0.499700000000     0          
Oa1      O2-    0.394400000000     0.640100000000     0.250300000000     0          
Oa1      O2-    0.355600000000     0.109900000000     0.250300000000     0          
Oa1      O2-    0.250300000000     0.855600000000     0.609900000000     0          
Oa1      O2-    0.390100000000     0.500300000000     0.105600000000     0          
Oa1      O2-    0.390100000000     0.749700000000     0.144400000000     0          
Oa1      O2-    0.605600000000     0.390100000000     0.000300000000     0          
Oa1      O2-    0.605600000000     0.859900000000     0.249700000000     0          
Oa1      O2-    0.644400000000     0.390100000000     0.249700000000     0          
Oa1      O2-    0.500300000000     0.644400000000     0.359900000000     0          
Oa1      O2-    0.749700000000     0.605600000000     0.359900000000     0          
Oa1      O2-    0.609900000000     0.499700000000     0.894400000000     0          
Oa1      O2-    0.140100000000     0.250300000000     0.894400000000     0          
Oa1      O2-    0.609900000000     0.250300000000     0.855600000000     0          
Oa1      O2-    0.140100000000     0.499700000000     0.855600000000     0          
Oa1      O2-    0.394400000000     0.609900000000     0.999700000000     0          
Oa1      O2-    0.355600000000     0.140100000000     0.999700000000     0          
Oa1      O2-    0.394400000000     0.140100000000     0.750300000000     0          
Oa1      O2-    0.355600000000     0.609900000000     0.750300000000     0          
Oa1      O2-    0.250300000000     0.355600000000     0.109900000000     0          
Oa2      O2-    0.251100000000     0.252800000000     0.141600000000     0          
Oa2      O2-    0.998900000000     0.252800000000     0.108400000000     0          
Oa2      O2-    0.251100000000     0.997200000000     0.108400000000     0          
Oa2      O2-    0.141600000000     0.998900000000     0.997200000000     0          
Oa2      O2-    0.108400000000     0.251100000000     0.997200000000     0          
Oa2      O2-    0.108400000000     0.998900000000     0.252800000000     0          
Oa2      O2-    0.997200000000     0.141600000000     0.998900000000     0          
Oa2      O2-    0.252800000000     0.141600000000     0.251100000000     0          
Oa2      O2-    0.252800000000     0.108400000000     0.998900000000     0          
Oa2      O2-    0.001100000000     0.002800000000     0.858400000000     0          
Oa2      O2-    0.748900000000     0.747200000000     0.858400000000     0          
Oa2      O2-    0.891600000000     0.748900000000     0.002800000000     0          
Oa2      O2-    0.858400000000     0.748900000000     0.747200000000     0          
Oa2      O2-    0.891600000000     0.001100000000     0.747200000000     0          
Oa2      O2-    0.002800000000     0.858400000000     0.001100000000     0          
Oa2      O2-    0.002800000000     0.891600000000     0.748900000000     0          
Oa2      O2-    0.747200000000     0.858400000000     0.748900000000     0          
Oa2      O2-    0.998900000000     0.497200000000     0.641600000000     0          
Oa2      O2-    0.251100000000     0.752800000000     0.641600000000     0          
Oa2      O2-    0.251100000000     0.497200000000     0.608400000000     0          
Oa2      O2-    0.141600000000     0.498900000000     0.497200000000     0          
Oa2      O2-    0.108400000000     0.751100000000     0.497200000000     0          
Oa2      O2-    0.141600000000     0.751100000000     0.752800000000     0          
Oa2      O2-    0.108400000000     0.498900000000     0.752800000000     0          
Oa2      O2-    0.748900000000     0.247200000000     0.358400000000     0          
Oa2      O2-    0.748900000000     0.502800000000     0.391600000000     0          
Oa2      O2-    0.858400000000     0.501100000000     0.502800000000     0          
Oa2      O2-    0.891600000000     0.248900000000     0.502800000000     0          
Oa2      O2-    0.891600000000     0.501100000000     0.247200000000     0          
Oa2      O2-    0.002800000000     0.358400000000     0.501100000000     0          
Oa2      O2-    0.002800000000     0.391600000000     0.248900000000     0          
Oa2      O2-    0.747200000000     0.358400000000     0.248900000000     0          
Oa2      O2-    0.498900000000     0.252800000000     0.608400000000     0          
Oa2      O2-    0.641600000000     0.998900000000     0.497200000000     0          
Oa2      O2-    0.497200000000     0.141600000000     0.498900000000     0          
Oa2      O2-    0.752800000000     0.108400000000     0.498900000000     0          
Oa2      O2-    0.501100000000     0.002800000000     0.358400000000     0          
Oa2      O2-    0.248900000000     0.747200000000     0.358400000000     0          
Oa2      O2-    0.391600000000     0.748900000000     0.502800000000     0          
Oa2      O2-    0.358400000000     0.748900000000     0.247200000000     0          
Oa2      O2-    0.391600000000     0.001100000000     0.247200000000     0          
Oa2      O2-    0.247200000000     0.891600000000     0.501100000000     0          
Oa2      O2-    0.498900000000     0.497200000000     0.141600000000     0          
Oa2      O2-    0.498900000000     0.752800000000     0.108400000000     0          
Oa2      O2-    0.641600000000     0.498900000000     0.997200000000     0          
Oa2      O2-    0.641600000000     0.751100000000     0.252800000000     0          
Oa2      O2-    0.608400000000     0.498900000000     0.252800000000     0          
Oa2      O2-    0.497200000000     0.608400000000     0.251100000000     0          
Oa2      O2-    0.752800000000     0.641600000000     0.251100000000     0          
Oa2      O2-    0.501100000000     0.502800000000     0.858400000000     0          
Oa2      O2-    0.248900000000     0.247200000000     0.858400000000     0          
Oa2      O2-    0.501100000000     0.247200000000     0.891600000000     0          
Oa2      O2-    0.248900000000     0.502800000000     0.891600000000     0          
Oa2      O2-    0.358400000000     0.501100000000     0.002800000000     0          
Oa2      O2-    0.391600000000     0.248900000000     0.002800000000     0          
Oa2      O2-    0.358400000000     0.248900000000     0.747200000000     0          
Oa2      O2-    0.391600000000     0.501100000000     0.747200000000     0          
Oa2      O2-    0.247200000000     0.391600000000     0.001100000000     0          
Oa3      O2-    0.284600000000     0.174200000000     0.071100000000     0          
Oa3      O2-    0.965400000000     0.174200000000     0.178900000000     0          
Oa3      O2-    0.284600000000     0.075800000000     0.178900000000     0          
Oa3      O2-    0.071100000000     0.965400000000     0.075800000000     0          
Oa3      O2-    0.178900000000     0.284600000000     0.075800000000     0          
Oa3      O2-    0.178900000000     0.965400000000     0.174200000000     0          
Oa3      O2-    0.075800000000     0.071100000000     0.965400000000     0          
Oa3      O2-    0.174200000000     0.071100000000     0.284600000000     0          
Oa3      O2-    0.174200000000     0.178900000000     0.965400000000     0          
Oa3      O2-    0.034600000000     0.924200000000     0.928900000000     0          
Oa3      O2-    0.715400000000     0.825800000000     0.928900000000     0          
Oa3      O2-    0.821100000000     0.715400000000     0.924200000000     0          
Oa3      O2-    0.928900000000     0.715400000000     0.825800000000     0          
Oa3      O2-    0.821100000000     0.034600000000     0.825800000000     0          
Oa3      O2-    0.924200000000     0.928900000000     0.034600000000     0          
Oa3      O2-    0.924200000000     0.821100000000     0.715400000000     0          
Oa3      O2-    0.825800000000     0.928900000000     0.715400000000     0          
Oa3      O2-    0.965400000000     0.575800000000     0.571100000000     0          
Oa3      O2-    0.284600000000     0.674200000000     0.571100000000     0          
Oa3      O2-    0.284600000000     0.575800000000     0.678900000000     0          
Oa3      O2-    0.071100000000     0.465400000000     0.575800000000     0          
Oa3      O2-    0.178900000000     0.784600000000     0.575800000000     0          
Oa3      O2-    0.071100000000     0.784600000000     0.674200000000     0          
Oa3      O2-    0.178900000000     0.465400000000     0.674200000000     0          
Oa3      O2-    0.715400000000     0.325800000000     0.428900000000     0          
Oa3      O2-    0.715400000000     0.424200000000     0.321100000000     0          
Oa3      O2-    0.928900000000     0.534600000000     0.424200000000     0          
Oa3      O2-    0.821100000000     0.215400000000     0.424200000000     0          
Oa3      O2-    0.821100000000     0.534600000000     0.325800000000     0          
Oa3      O2-    0.924200000000     0.428900000000     0.534600000000     0          
Oa3      O2-    0.924200000000     0.321100000000     0.215400000000     0          
Oa3      O2-    0.825800000000     0.428900000000     0.215400000000     0          
Oa3      O2-    0.465400000000     0.174200000000     0.678900000000     0          
Oa3      O2-    0.571100000000     0.965400000000     0.575800000000     0          
Oa3      O2-    0.575800000000     0.071100000000     0.465400000000     0          
Oa3      O2-    0.674200000000     0.178900000000     0.465400000000     0          
Oa3      O2-    0.534600000000     0.924200000000     0.428900000000     0          
Oa3      O2-    0.215400000000     0.825800000000     0.428900000000     0          
Oa3      O2-    0.321100000000     0.715400000000     0.424200000000     0          
Oa3      O2-    0.428900000000     0.715400000000     0.325800000000     0          
Oa3      O2-    0.321100000000     0.034600000000     0.325800000000     0          
Oa3      O2-    0.325800000000     0.821100000000     0.534600000000     0          
Oa3      O2-    0.465400000000     0.575800000000     0.071100000000     0          
Oa3      O2-    0.465400000000     0.674200000000     0.178900000000     0          
Oa3      O2-    0.571100000000     0.465400000000     0.075800000000     0          
Oa3      O2-    0.571100000000     0.784600000000     0.174200000000     0          
Oa3      O2-    0.678900000000     0.465400000000     0.174200000000     0          
Oa3      O2-    0.575800000000     0.678900000000     0.284600000000     0          
Oa3      O2-    0.674200000000     0.571100000000     0.284600000000     0          
Oa3      O2-    0.534600000000     0.424200000000     0.928900000000     0          
Oa3      O2-    0.215400000000     0.325800000000     0.928900000000     0          
Oa3      O2-    0.534600000000     0.325800000000     0.821100000000     0          
Oa3      O2-    0.215400000000     0.424200000000     0.821100000000     0          
Oa3      O2-    0.428900000000     0.534600000000     0.924200000000     0          
Oa3      O2-    0.321100000000     0.215400000000     0.924200000000     0          
Oa3      O2-    0.428900000000     0.215400000000     0.825800000000     0          
Oa3      O2-    0.321100000000     0.534600000000     0.825800000000     0          
Oa3      O2-    0.325800000000     0.321100000000     0.034600000000     0          
Oa4      O2-    0.319300000000     0.177400000000     0.180000000000     0          
Oa4      O2-    0.930700000000     0.177400000000     0.070000000000     0          
Oa4      O2-    0.319300000000     0.072600000000     0.070000000000     0          
Oa4      O2-    0.180000000000     0.930700000000     0.072600000000     0          
Oa4      O2-    0.070000000000     0.319300000000     0.072600000000     0          
Oa4      O2-    0.070000000000     0.930700000000     0.177400000000     0          
Oa4      O2-    0.072600000000     0.180000000000     0.930700000000     0          
Oa4      O2-    0.177400000000     0.180000000000     0.319300000000     0          
Oa4      O2-    0.177400000000     0.070000000000     0.930700000000     0          
Oa4      O2-    0.069300000000     0.927400000000     0.820000000000     0          
Oa4      O2-    0.680700000000     0.822600000000     0.820000000000     0          
Oa4      O2-    0.930000000000     0.680700000000     0.927400000000     0          
Oa4      O2-    0.820000000000     0.680700000000     0.822600000000     0          
Oa4      O2-    0.930000000000     0.069300000000     0.822600000000     0          
Oa4      O2-    0.927400000000     0.820000000000     0.069300000000     0          
Oa4      O2-    0.927400000000     0.930000000000     0.680700000000     0          
Oa4      O2-    0.822600000000     0.820000000000     0.680700000000     0          
Oa4      O2-    0.930700000000     0.572600000000     0.680000000000     0          
Oa4      O2-    0.319300000000     0.677400000000     0.680000000000     0          
Oa4      O2-    0.319300000000     0.572600000000     0.570000000000     0          
Oa4      O2-    0.180000000000     0.430700000000     0.572600000000     0          
Oa4      O2-    0.070000000000     0.819300000000     0.572600000000     0          
Oa4      O2-    0.180000000000     0.819300000000     0.677400000000     0          
Oa4      O2-    0.070000000000     0.430700000000     0.677400000000     0          
Oa4      O2-    0.680700000000     0.322600000000     0.320000000000     0          
Oa4      O2-    0.680700000000     0.427400000000     0.430000000000     0          
Oa4      O2-    0.820000000000     0.569300000000     0.427400000000     0          
Oa4      O2-    0.930000000000     0.180700000000     0.427400000000     0          
Oa4      O2-    0.930000000000     0.569300000000     0.322600000000     0          
Oa4      O2-    0.927400000000     0.320000000000     0.569300000000     0          
Oa4      O2-    0.927400000000     0.430000000000     0.180700000000     0          
Oa4      O2-    0.822600000000     0.320000000000     0.180700000000     0          
Oa4      O2-    0.430700000000     0.177400000000     0.570000000000     0          
Oa4      O2-    0.680000000000     0.930700000000     0.572600000000     0          
Oa4      O2-    0.572600000000     0.180000000000     0.430700000000     0          
Oa4      O2-    0.677400000000     0.070000000000     0.430700000000     0          
Oa4      O2-    0.569300000000     0.927400000000     0.320000000000     0          
Oa4      O2-    0.180700000000     0.822600000000     0.320000000000     0          
Oa4      O2-    0.430000000000     0.680700000000     0.427400000000     0          
Oa4      O2-    0.320000000000     0.680700000000     0.322600000000     0          
Oa4      O2-    0.430000000000     0.069300000000     0.322600000000     0          
Oa4      O2-    0.322600000000     0.930000000000     0.569300000000     0          
Oa4      O2-    0.430700000000     0.572600000000     0.180000000000     0          
Oa4      O2-    0.430700000000     0.677400000000     0.070000000000     0          
Oa4      O2-    0.680000000000     0.430700000000     0.072600000000     0          
Oa4      O2-    0.680000000000     0.819300000000     0.177400000000     0          
Oa4      O2-    0.570000000000     0.430700000000     0.177400000000     0          
Oa4      O2-    0.572600000000     0.570000000000     0.319300000000     0          
Oa4      O2-    0.677400000000     0.680000000000     0.319300000000     0          
Oa4      O2-    0.569300000000     0.427400000000     0.820000000000     0          
Oa4      O2-    0.180700000000     0.322600000000     0.820000000000     0          
Oa4      O2-    0.569300000000     0.322600000000     0.930000000000     0          
Oa4      O2-    0.180700000000     0.427400000000     0.930000000000     0          
Oa4      O2-    0.320000000000     0.569300000000     0.927400000000     0          
Oa4      O2-    0.430000000000     0.180700000000     0.927400000000     0          
Oa4      O2-    0.320000000000     0.180700000000     0.822600000000     0          
Oa4      O2-    0.430000000000     0.569300000000     0.822600000000     0          
Oa4      O2-    0.322600000000     0.430000000000     0.069300000000     0          


