data_NaX

_audit_creation_method RASPA-1.0
_audit_creation_date 2014-11-30
_audit_author_name 'David Dubbeldam'

_citation_author_name        'D.H. Olson'
_citation_title              'The crystal structure of dehydrated NaX'
_citation_journal_abbrev     'Zeolites'
_citation_journal_volume     15
_citation_page_first         439
_citation_page_last          443
_citation_year               1995

_cell_length_a    25.099
_cell_length_b    25.099
_cell_length_c    25.099
_cell_angle_alpha 90
_cell_angle_beta  90
_cell_angle_gamma 90
_cell_volume      15811.4

_symmetry_cell_setting          cubic
_symmetry_space_group_name_Hall '-F 2uv 2vw 3'
_symmetry_space_group_name_H-M  'F d -3'
_symmetry_Int_Tables_number     203

loop_
_symmetry_equiv_pos_as_xyz
 'x,y,z'
 '-x+1/4,-y+1/4,z'
 '-x+1/4,y,-z+1/4'
 'x,-y+1/4,-z+1/4'
 'z,x,y'
 'z,-x+1/4,-y+1/4'
 '-z+1/4,-x+1/4,y'
 '-z+1/4,x,-y+1/4'
 'y,z,x'
 '-y+1/4,z,-x+1/4'
 'y,-z+1/4,-x+1/4'
 '-y+1/4,-z+1/4,x'
 '-x,-y,-z'
 'x+3/4,y+3/4,-z'
 'x+3/4,-y,z+3/4'
 '-x,y+3/4,z+3/4'
 '-z,-x,-y'
 '-z,x+3/4,y+3/4'
 'z+3/4,x+3/4,-y'
 'z+3/4,-x,y+3/4'
 '-y,-z,-x'
 'y+3/4,-z,x+3/4'
 '-y,z+3/4,x+3/4'
 'y+3/4,z+3/4,-x'
 'x,y+1/2,z+1/2'
 '-x+1/4,-y+3/4,z+1/2'
 '-x+1/4,y+1/2,-z+3/4'
 'x,-y+3/4,-z+3/4'
 'z,x+1/2,y+1/2'
 'z,-x+3/4,-y+3/4'
 '-z+1/4,-x+3/4,y+1/2'
 '-z+1/4,x+1/2,-y+3/4'
 'y,z+1/2,x+1/2'
 '-y+1/4,z+1/2,-x+3/4'
 'y,-z+3/4,-x+3/4'
 '-y+1/4,-z+3/4,x+1/2'
 '-x,-y+1/2,-z+1/2'
 'x+3/4,y+1/4,-z+1/2'
 'x+3/4,-y+1/2,z+1/4'
 '-x,y+1/4,z+1/4'
 '-z,-x+1/2,-y+1/2'
 '-z,x+1/4,y+1/4'
 'z+3/4,x+1/4,-y+1/2'
 'z+3/4,-x+1/2,y+1/4'
 '-y,-z+1/2,-x+1/2'
 'y+3/4,-z+1/2,x+1/4'
 '-y,z+1/4,x+1/4'
 'y+3/4,z+1/4,-x+1/2'
 'x+1/2,y,z+1/2'
 '-x+3/4,-y+1/4,z+1/2'
 '-x+3/4,y,-z+3/4'
 'x+1/2,-y+1/4,-z+3/4'
 'z+1/2,x,y+1/2'
 'z+1/2,-x+1/4,-y+3/4'
 '-z+3/4,-x+1/4,y+1/2'
 '-z+3/4,x,-y+3/4'
 'y+1/2,z,x+1/2'
 '-y+3/4,z,-x+3/4'
 'y+1/2,-z+1/4,-x+3/4'
 '-y+3/4,-z+1/4,x+1/2'
 '-x+1/2,-y,-z+1/2'
 'x+1/4,y+3/4,-z+1/2'
 'x+1/4,-y,z+1/4'
 '-x+1/2,y+3/4,z+1/4'
 '-z+1/2,-x,-y+1/2'
 '-z+1/2,x+3/4,y+1/4'
 'z+1/4,x+3/4,-y+1/2'
 'z+1/4,-x,y+1/4'
 '-y+1/2,-z,-x+1/2'
 'y+1/4,-z,x+1/4'
 '-y+1/2,z+3/4,x+1/4'
 'y+1/4,z+3/4,-x+1/2'
 'x+1/2,y+1/2,z'
 '-x+3/4,-y+3/4,z'
 '-x+3/4,y+1/2,-z+1/4'
 'x+1/2,-y+3/4,-z+1/4'
 'z+1/2,x+1/2,y'
 'z+1/2,-x+3/4,-y+1/4'
 '-z+3/4,-x+3/4,y'
 '-z+3/4,x+1/2,-y+1/4'
 'y+1/2,z+1/2,x'
 '-y+3/4,z+1/2,-x+1/4'
 'y+1/2,-z+3/4,-x+1/4'
 '-y+3/4,-z+3/4,x'
 '-x+1/2,-y+1/2,-z'
 'x+1/4,y+1/4,-z'
 'x+1/4,-y+1/2,z+3/4'
 '-x+1/2,y+1/4,z+3/4'
 '-z+1/2,-x+1/2,-y'
 '-z+1/2,x+1/4,y+3/4'
 'z+1/4,x+1/4,-y'
 'z+1/4,-x+1/2,y+3/4'
 '-y+1/2,-z+1/2,-x'
 'y+1/4,-z+1/2,x+3/4'
 '-y+1/2,z+1/4,x+3/4'
 'y+1/4,z+1/4,-x'

loop_
_atom_site_label
_atom_site_type_symbol
_atom_site_fract_x
_atom_site_fract_y
_atom_site_fract_z
_atom_site_charge
Si1      Si     0.946190000000     0.125650000000     0.035080000000     0     
Al1      Al     0.944760000000     0.036390000000     0.124180000000     0     
O1       O      0.890100000000     0.000300000000     0.105600000000     0     
O2       O      0.998900000000     0.997200000000     0.141600000000     0     
O3       O      0.965400000000     0.075800000000     0.071100000000     0     
O4       O      0.930700000000     0.072600000000     0.180000000000     0     


