data_EMT

_audit_creation_method RASPA-1.0
_audit_creation_date 2011-12-20
_audit_author_name 'David Dubbeldam'

_citation_author_name        'Ch. Baerlocher, L. B. McCusker and R. Chiappetta'
_citation_title              'Location of the 18-crown-6 template in EMC-2 (EMT). Rietveld refinement of the calcined and as-synthesized forms'
_citation_journal_abbrev     'Microporous Materials'
_citation_journal_volume     2
_citation_page_first         269
_citation_page_last          280
_citation_year               1994

_cell_length_a    17.3864
_cell_length_b    17.3864
_cell_length_c    28.3459
_cell_angle_alpha 90
_cell_angle_beta  90
_cell_angle_gamma 120
_cell_volume      7420.62

_symmetry_cell_setting          hexagonal
_symmetry_space_group_name_Hall '-P 6c 2c'
_symmetry_space_group_name_H-M  'P 63/m m c'
_symmetry_Int_Tables_number     194

loop_
_symmetry_equiv_pos_as_xyz
 'x,y,z'
 '-y,x-y,z'
 '-x+y,-x,z'
 '-x,-y,z+1/2'
 'y,-x+y,z+1/2'
 'x-y,x,z+1/2'
 'y,x,-z'
 'x-y,-y,-z'
 '-x,-x+y,-z'
 '-y,-x,-z+1/2'
 '-x+y,y,-z+1/2'
 'x,x-y,-z+1/2'
 '-x,-y,-z'
 'y,-x+y,-z'
 'x-y,x,-z'
 'x,y,-z+1/2'
 '-y,x-y,-z+1/2'
 '-x+y,-x,-z+1/2'
 '-y,-x,z'
 '-x+y,y,z'
 'x,x-y,z'
 'y,x,z+1/2'
 'x-y,-y,z+1/2'
 '-x,-x+y,z+1/2'

loop_
_atom_site_label
_atom_site_type_symbol
_atom_site_fract_x
_atom_site_fract_y
_atom_site_fract_z
_atom_site_charge
Si       Si    0.3734       0.0962       0.0167       0
Si       Si    0.4275       0.034        0.1069       0
Si       Si    0.4874       0.1546      -0.073        0
Si       Si    0.4867       0.1521       0.1961       0
O        O     0.457        0.13        -0.0187       0
O        O     0.292        0            0            0
O        O     0.34         0.17         0.018        0
O        O     0.403        0.093        0.0713       0
O        O     0.425        0.069        0.1601       0
O        O     0.356       -0.072        0.1103       0
O        O     0.528        0.056        0.094        0
O        O     0.478        0.239       -0.092        0
O        O     0.594        0.188       -0.074        0
O        O     0.472        0.236        0.181        0
O        O     0.591        0.1818       0.187        0
O        O     0.453        0.117        0.25         0


