data_ERI_SI

_audit_creation_method RASPA-1.0
_audit_creation_date 2011-2-19
_audit_author_name 'David Dubbeldam'

_citation_author_name        'J.A. Gard and J.M. Tait'
_citation_title              'Refinement of the crystal structure of erionite'
_citation_journal_abbrev     'Proc. 3rd Int. Conf. Molecular Sieves'
_citation_page_first         94
_citation_page_last          99
_citation_year               1973

_cell_length_a    13.27
_cell_length_b    13.27
_cell_length_c    15.05
_cell_angle_alpha 90
_cell_angle_beta  90
_cell_angle_gamma 120
_cell_volume      2295.14

_symmetry_cell_setting          hexagonal
_symmetry_space_group_name_Hall '-P 6c 2c'
_symmetry_space_group_name_H-M  'P 63/m m c'
_symmetry_Int_Tables_number     194

loop_
_symmetry_equiv_pos_as_xyz
 'x,y,z'
 '-y,x-y,z'
 '-x+y,-x,z'
 '-x,-y,z+1/2'
 'y,-x+y,z+1/2'
 'x-y,x,z+1/2'
 'y,x,-z'
 'x-y,-y,-z'
 '-x,-x+y,-z'
 '-y,-x,-z+1/2'
 '-x+y,y,-z+1/2'
 'x,x-y,-z+1/2'
 '-x,-y,-z'
 'y,-x+y,-z'
 'x-y,x,-z'
 'x,y,-z+1/2'
 '-y,x-y,-z+1/2'
 '-x+y,-x,-z+1/2'
 '-y,-x,z'
 '-x+y,y,z'
 'x,x-y,z'
 'y,x,z+1/2'
 'x-y,-y,z+1/2'
 '-x,-x+y,z+1/2'

loop_
_atom_site_label
_atom_site_type_symbol
_atom_site_fract_x
_atom_site_fract_y
_atom_site_fract_z
_atom_site_charge
_atom_site_polarization
_atom_site_anisotropic_displacement
_atom_site_anisotropic_type
_atom_site_print_to_pdb
Si1      Si4+   0.00021   0.2335    0.10446   2.05    0       0    absolute yes
Si2      Si4+   0.0935    0.4245    0.25      2.05    0       0    absolute yes
O1       O2-    0.0267    0.3493    0.161    -1.025   0       0    absolute yes
O2       O2-    0.0979    0.1957    0.1264   -1.025   0       0    absolute yes
O3       O2-    0.1258    0.2516    0.6339   -1.025   0       0    absolute yes
O4       O2-    0.2638    0         0        -1.025   0       0    absolute yes
O5       O2-    0.2293    0.4585    0.25     -1.025   0       0    absolute yes
O6       O2-    0.4603    0.9206    0.25     -1.025   0       0    absolute yes
