data_FAU_SI

_audit_creation_method RASPA-1.0
_audit_creation_date 2011-2-19
_audit_author_name 'David Dubbeldam'

_citation_author_name        'J.J. Hriljac, M.M. Eddy, A.K. Cheetham, J.A. Donohue,  and G.J. Ray'
_citation_title              'Powder Neutron Diffraction and Si-29 MAS NMR Studies of Siliceous Zeolite-Y'
_citation_journal_abbrev     'J. Solid State Chem.'
_citation_journal_volume     106
_citation_page_first         66
_citation_page_last          72
_citation_year               1993

_cell_length_a    24.2576
_cell_length_b    24.2576
_cell_length_c    24.2576
_cell_angle_alpha 90
_cell_angle_beta  90
_cell_angle_gamma 90
_cell_volume      14273.9

_symmetry_cell_setting          cubic
_symmetry_space_group_name_Hall '-F 4vw 2vw 3'
_symmetry_space_group_name_H-M  'F d -3 m'
_symmetry_Int_Tables_number     227

loop_
_symmetry_equiv_pos_as_xyz
 'x,y,z'
 '-x+3/4,-y+1/4,z+1/2'
 '-x+1/4,y+1/2,-z+3/4'
 'x+1/2,-y+3/4,-z+1/4'
 'z,x,y'
 'z+1/2,-x+3/4,-y+1/4'
 '-z+3/4,-x+1/4,y+1/2'
 '-z+1/4,x+1/2,-y+3/4'
 'y,z,x'
 '-y+1/4,z+1/2,-x+3/4'
 'y+1/2,-z+3/4,-x+1/4'
 '-y+3/4,-z+1/4,x+1/2'
 'y+3/4,x+1/4,-z+1/2'
 '-y,-x,-z'
 'y+1/4,-x+1/2,z+3/4'
 '-y+1/2,x+3/4,z+1/4'
 'x+3/4,z+1/4,-y+1/2'
 '-x+1/2,z+3/4,y+1/4'
 '-x,-z,-y'
 'x+1/4,-z+1/2,y+3/4'
 'z+3/4,y+1/4,-x+1/2'
 'z+1/4,-y+1/2,x+3/4'
 '-z+1/2,y+3/4,x+1/4'
 '-z,-y,-x'
 '-x,-y,-z'
 'x+1/4,y+3/4,-z+1/2'
 'x+3/4,-y+1/2,z+1/4'
 '-x+1/2,y+1/4,z+3/4'
 '-z,-x,-y'
 '-z+1/2,x+1/4,y+3/4'
 'z+1/4,x+3/4,-y+1/2'
 'z+3/4,-x+1/2,y+1/4'
 '-y,-z,-x'
 'y+3/4,-z+1/2,x+1/4'
 '-y+1/2,z+1/4,x+3/4'
 'y+1/4,z+3/4,-x+1/2'
 '-y+1/4,-x+3/4,z+1/2'
 'y,x,z'
 '-y+3/4,x+1/2,-z+1/4'
 'y+1/2,-x+1/4,-z+3/4'
 '-x+1/4,-z+3/4,y+1/2'
 'x+1/2,-z+1/4,-y+3/4'
 'x,z,y'
 '-x+3/4,z+1/2,-y+1/4'
 '-z+1/4,-y+3/4,x+1/2'
 '-z+3/4,y+1/2,-x+1/4'
 'z+1/2,-y+1/4,-x+3/4'
 'z,y,x'
 'x,y+1/2,z+1/2'
 '-x+3/4,-y+3/4,z'
 '-x+1/4,y,-z+1/4'
 'x+1/2,-y+1/4,-z+3/4'
 'z,x+1/2,y+1/2'
 'z+1/2,-x+1/4,-y+3/4'
 '-z+3/4,-x+3/4,y'
 '-z+1/4,x,-y+1/4'
 'y,z+1/2,x+1/2'
 '-y+1/4,z,-x+1/4'
 'y+1/2,-z+1/4,-x+3/4'
 '-y+3/4,-z+3/4,x'
 'y+3/4,x+3/4,-z'
 '-y,-x+1/2,-z+1/2'
 'y+1/4,-x,z+1/4'
 '-y+1/2,x+1/4,z+3/4'
 'x+3/4,z+3/4,-y'
 '-x+1/2,z+1/4,y+3/4'
 '-x,-z+1/2,-y+1/2'
 'x+1/4,-z,y+1/4'
 'z+3/4,y+3/4,-x'
 'z+1/4,-y,x+1/4'
 '-z+1/2,y+1/4,x+3/4'
 '-z,-y+1/2,-x+1/2'
 '-x,-y+1/2,-z+1/2'
 'x+1/4,y+1/4,-z'
 'x+3/4,-y,z+3/4'
 '-x+1/2,y+3/4,z+1/4'
 '-z,-x+1/2,-y+1/2'
 '-z+1/2,x+3/4,y+1/4'
 'z+1/4,x+1/4,-y'
 'z+3/4,-x,y+3/4'
 '-y,-z+1/2,-x+1/2'
 'y+3/4,-z,x+3/4'
 '-y+1/2,z+3/4,x+1/4'
 'y+1/4,z+1/4,-x'
 '-y+1/4,-x+1/4,z'
 'y,x+1/2,z+1/2'
 '-y+3/4,x,-z+3/4'
 'y+1/2,-x+3/4,-z+1/4'
 '-x+1/4,-z+1/4,y'
 'x+1/2,-z+3/4,-y+1/4'
 'x,z+1/2,y+1/2'
 '-x+3/4,z,-y+3/4'
 '-z+1/4,-y+1/4,x'
 '-z+3/4,y,-x+3/4'
 'z+1/2,-y+3/4,-x+1/4'
 'z,y+1/2,x+1/2'
 'x+1/2,y,z+1/2'
 '-x+1/4,-y+1/4,z'
 '-x+3/4,y+1/2,-z+1/4'
 'x,-y+3/4,-z+3/4'
 'z+1/2,x,y+1/2'
 'z,-x+3/4,-y+3/4'
 '-z+1/4,-x+1/4,y'
 '-z+3/4,x+1/2,-y+1/4'
 'y+1/2,z,x+1/2'
 '-y+3/4,z+1/2,-x+1/4'
 'y,-z+3/4,-x+3/4'
 '-y+1/4,-z+1/4,x'
 'y+1/4,x+1/4,-z'
 '-y+1/2,-x,-z+1/2'
 'y+3/4,-x+1/2,z+1/4'
 '-y,x+3/4,z+3/4'
 'x+1/4,z+1/4,-y'
 '-x,z+3/4,y+3/4'
 '-x+1/2,-z,-y+1/2'
 'x+3/4,-z+1/2,y+1/4'
 'z+1/4,y+1/4,-x'
 'z+3/4,-y+1/2,x+1/4'
 '-z,y+3/4,x+3/4'
 '-z+1/2,-y,-x+1/2'
 '-x+1/2,-y,-z+1/2'
 'x+3/4,y+3/4,-z'
 'x+1/4,-y+1/2,z+3/4'
 '-x,y+1/4,z+1/4'
 '-z+1/2,-x,-y+1/2'
 '-z,x+1/4,y+1/4'
 'z+3/4,x+3/4,-y'
 'z+1/4,-x+1/2,y+3/4'
 '-y+1/2,-z,-x+1/2'
 'y+1/4,-z+1/2,x+3/4'
 '-y,z+1/4,x+1/4'
 'y+3/4,z+3/4,-x'
 '-y+3/4,-x+3/4,z'
 'y+1/2,x,z+1/2'
 '-y+1/4,x+1/2,-z+3/4'
 'y,-x+1/4,-z+1/4'
 '-x+3/4,-z+3/4,y'
 'x,-z+1/4,-y+1/4'
 'x+1/2,z,y+1/2'
 '-x+1/4,z+1/2,-y+3/4'
 '-z+3/4,-y+3/4,x'
 '-z+1/4,y+1/2,-x+3/4'
 'z,-y+1/4,-x+1/4'
 'z+1/2,y,x+1/2'
 'x+1/2,y+1/2,z'
 '-x+1/4,-y+3/4,z+1/2'
 '-x+3/4,y,-z+3/4'
 'x,-y+1/4,-z+1/4'
 'z+1/2,x+1/2,y'
 'z,-x+1/4,-y+1/4'
 '-z+1/4,-x+3/4,y+1/2'
 '-z+3/4,x,-y+3/4'
 'y+1/2,z+1/2,x'
 '-y+3/4,z,-x+3/4'
 'y,-z+1/4,-x+1/4'
 '-y+1/4,-z+3/4,x+1/2'
 'y+1/4,x+3/4,-z+1/2'
 '-y+1/2,-x+1/2,-z'
 'y+3/4,-x,z+3/4'
 '-y,x+1/4,z+1/4'
 'x+1/4,z+3/4,-y+1/2'
 '-x,z+1/4,y+1/4'
 '-x+1/2,-z+1/2,-y'
 'x+3/4,-z,y+3/4'
 'z+1/4,y+3/4,-x+1/2'
 'z+3/4,-y,x+3/4'
 '-z,y+1/4,x+1/4'
 '-z+1/2,-y+1/2,-x'
 '-x+1/2,-y+1/2,-z'
 'x+3/4,y+1/4,-z+1/2'
 'x+1/4,-y,z+1/4'
 '-x,y+3/4,z+3/4'
 '-z+1/2,-x+1/2,-y'
 '-z,x+3/4,y+3/4'
 'z+3/4,x+1/4,-y+1/2'
 'z+1/4,-x,y+1/4'
 '-y+1/2,-z+1/2,-x'
 'y+1/4,-z,x+1/4'
 '-y,z+3/4,x+3/4'
 'y+3/4,z+1/4,-x+1/2'
 '-y+3/4,-x+1/4,z+1/2'
 'y+1/2,x+1/2,z'
 '-y+1/4,x,-z+1/4'
 'y,-x+3/4,-z+3/4'
 '-x+3/4,-z+1/4,y+1/2'
 'x,-z+3/4,-y+3/4'
 'x+1/2,z+1/2,y'
 '-x+1/4,z,-y+1/4'
 '-z+3/4,-y+1/4,x+1/2'
 '-z+1/4,y,-x+1/4'
 'z,-y+3/4,-x+3/4'
 'z+1/2,y+1/2,x'

loop_
_atom_site_label
_atom_site_type_symbol
_atom_site_fract_x
_atom_site_fract_y
_atom_site_fract_z
_atom_site_charge
_atom_site_polarization
_atom_site_anisotropic_displacement
_atom_site_anisotropic_type
_atom_site_print_to_pdb
Si1      Si4+  -0.05392   0.1253    0.03589   2.05    0       0    absolute yes
O1       O2-    0        -0.10623   0.10623  -1.025   0       0    absolute yes
O2       O2-   -0.00323  -0.00323   0.14066  -1.025   0       0    absolute yes
O3       O2-    0.0757    0.0757   -0.03577  -1.025   0       0    absolute yes
O4       O2-    0.07063   0.07063   0.32115  -1.025   0       0    absolute yes


