data_ITQ-29

_audit_creation_method RASPA-1.0
_audit_creation_date 2011-2-20
_audit_author_name 'David Dubbeldam'

_citation_author_name        'A. Corma, F. Rey, J. Rius, M.J. Sabater, and S. Valencia'
_citation_title              'Supramolecular self-assembled molecules as organic directing agent for synthesis of zeolites'
_citation_journal_abbrev     'Nature'
_citation_journal_volume     431
_citation_page_first         287
_citation_page_last          290
_citation_year               2004

_cell_length_a    11.8671
_cell_length_b    11.8671
_cell_length_c    11.8671
_cell_angle_alpha 90
_cell_angle_beta  90
_cell_angle_gamma 90
_cell_volume      1671.22

_symmetry_cell_setting          cubic
_symmetry_space_group_name_Hall '-P 4 2 3'
_symmetry_space_group_name_H-M  'P m -3 m'
_symmetry_Int_Tables_number     221

loop_
_symmetry_equiv_pos_as_xyz
 'x,y,z'
 '-x,-y,z'
 '-x,y,-z'
 'x,-y,-z'
 'z,x,y'
 'z,-x,-y'
 '-z,-x,y'
 '-z,x,-y'
 'y,z,x'
 '-y,z,-x'
 'y,-z,-x'
 '-y,-z,x'
 'y,x,-z'
 '-y,-x,-z'
 'y,-x,z'
 '-y,x,z'
 'x,z,-y'
 '-x,z,y'
 '-x,-z,-y'
 'x,-z,y'
 'z,y,-x'
 'z,-y,x'
 '-z,y,x'
 '-z,-y,-x'
 '-x,-y,-z'
 'x,y,-z'
 'x,-y,z'
 '-x,y,z'
 '-z,-x,-y'
 '-z,x,y'
 'z,x,-y'
 'z,-x,y'
 '-y,-z,-x'
 'y,-z,x'
 '-y,z,x'
 'y,z,-x'
 '-y,-x,z'
 'y,x,z'
 '-y,x,-z'
 'y,-x,-z'
 '-x,-z,y'
 'x,-z,-y'
 'x,z,y'
 '-x,z,-y'
 '-z,-y,x'
 '-z,y,-x'
 'z,-y,-x'
 'z,y,x'

loop_
_atom_site_label
_atom_site_type_symbol
_atom_site_fract_x
_atom_site_fract_y
_atom_site_fract_z
_atom_site_charge
_atom_site_polarization
_atom_site_anisotropic_displacement
_atom_site_anisotropic_type
_atom_site_print_to_pdb
Si1      Si4+   0.3683    0.1847    0         2.05    0       0    absolute yes
O1       O2-    0.5       0.2179    0        -1.025   0       0    absolute yes
O2       O2-    0.2939    0.2939    0        -1.025   0       0    absolute yes
O3       O2-    0.3429    0.1098    0.1098   -1.025   0       0    absolute yes


