data_KFI

_audit_creation_method RASPA-1.0
_audit_creation_date 2011-3-3
_audit_author_name 'David Dubbeldam'

_citation_author_name        'J.B. Parise, R.D. Shannon,  E. Prince, and D.E. Cox'
_citation_title              'The crystal structures of the synthetic zeolites (Cs,K)-ZK5 and (Cs,D)-ZK5 determined from neutron powder diffraction data'
_citation_journal_abbrev     'Z. Kristallogr.'
_citation_journal_volume     165
_citation_page_first         175
_citation_page_last          190
_citation_year               1983

_cell_length_a    18.671
_cell_length_b    18.671
_cell_length_c    18.671
_cell_angle_alpha 90
_cell_angle_beta  90
_cell_angle_gamma 90
_cell_volume      6508.83

_symmetry_cell_setting          cubic
_symmetry_space_group_name_Hall '-I 4 2 3'
_symmetry_space_group_name_H-M  'I m -3 m'
_symmetry_Int_Tables_number     229

loop_
_symmetry_equiv_pos_as_xyz
 'x,y,z'
 '-x,-y,z'
 '-x,y,-z'
 'x,-y,-z'
 'z,x,y'
 'z,-x,-y'
 '-z,-x,y'
 '-z,x,-y'
 'y,z,x'
 '-y,z,-x'
 'y,-z,-x'
 '-y,-z,x'
 'y,x,-z'
 '-y,-x,-z'
 'y,-x,z'
 '-y,x,z'
 'x,z,-y'
 '-x,z,y'
 '-x,-z,-y'
 'x,-z,y'
 'z,y,-x'
 'z,-y,x'
 '-z,y,x'
 '-z,-y,-x'
 '-x,-y,-z'
 'x,y,-z'
 'x,-y,z'
 '-x,y,z'
 '-z,-x,-y'
 '-z,x,y'
 'z,x,-y'
 'z,-x,y'
 '-y,-z,-x'
 'y,-z,x'
 '-y,z,x'
 'y,z,-x'
 '-y,-x,z'
 'y,x,z'
 '-y,x,-z'
 'y,-x,-z'
 '-x,-z,y'
 'x,-z,-y'
 'x,z,y'
 '-x,z,-y'
 '-z,-y,x'
 '-z,y,-x'
 'z,-y,-x'
 'z,y,x'
 'x+1/2,y+1/2,z+1/2'
 '-x+1/2,-y+1/2,z+1/2'
 '-x+1/2,y+1/2,-z+1/2'
 'x+1/2,-y+1/2,-z+1/2'
 'z+1/2,x+1/2,y+1/2'
 'z+1/2,-x+1/2,-y+1/2'
 '-z+1/2,-x+1/2,y+1/2'
 '-z+1/2,x+1/2,-y+1/2'
 'y+1/2,z+1/2,x+1/2'
 '-y+1/2,z+1/2,-x+1/2'
 'y+1/2,-z+1/2,-x+1/2'
 '-y+1/2,-z+1/2,x+1/2'
 'y+1/2,x+1/2,-z+1/2'
 '-y+1/2,-x+1/2,-z+1/2'
 'y+1/2,-x+1/2,z+1/2'
 '-y+1/2,x+1/2,z+1/2'
 'x+1/2,z+1/2,-y+1/2'
 '-x+1/2,z+1/2,y+1/2'
 '-x+1/2,-z+1/2,-y+1/2'
 'x+1/2,-z+1/2,y+1/2'
 'z+1/2,y+1/2,-x+1/2'
 'z+1/2,-y+1/2,x+1/2'
 '-z+1/2,y+1/2,x+1/2'
 '-z+1/2,-y+1/2,-x+1/2'
 '-x+1/2,-y+1/2,-z+1/2'
 'x+1/2,y+1/2,-z+1/2'
 'x+1/2,-y+1/2,z+1/2'
 '-x+1/2,y+1/2,z+1/2'
 '-z+1/2,-x+1/2,-y+1/2'
 '-z+1/2,x+1/2,y+1/2'
 'z+1/2,x+1/2,-y+1/2'
 'z+1/2,-x+1/2,y+1/2'
 '-y+1/2,-z+1/2,-x+1/2'
 'y+1/2,-z+1/2,x+1/2'
 '-y+1/2,z+1/2,x+1/2'
 'y+1/2,z+1/2,-x+1/2'
 '-y+1/2,-x+1/2,z+1/2'
 'y+1/2,x+1/2,z+1/2'
 '-y+1/2,x+1/2,-z+1/2'
 'y+1/2,-x+1/2,-z+1/2'
 '-x+1/2,-z+1/2,y+1/2'
 'x+1/2,-z+1/2,-y+1/2'
 'x+1/2,z+1/2,y+1/2'
 '-x+1/2,z+1/2,-y+1/2'
 '-z+1/2,-y+1/2,x+1/2'
 '-z+1/2,y+1/2,-x+1/2'
 'z+1/2,-y+1/2,-x+1/2'
 'z+1/2,y+1/2,x+1/2'

loop_
_atom_site_label
_atom_site_type_symbol
_atom_site_fract_x
_atom_site_fract_y
_atom_site_fract_z
_atom_site_charge
_atom_site_polarization
_atom_site_anisotropic_displacement
_atom_site_anisotropic_type
_atom_site_print_to_pdb
Si       Si     0.0825    0.2023    0.3211    2.05    0       0    absolute yes
O        O      0.128     0.128     0.3145   -1.025   0       0    absolute yes
O        O      0.2522    0.2522    0.4081   -1.025   0       0    absolute yes
O        O      0         0.1783    0.3369   -1.025   0       0    absolute yes
O        O      0.25      0.1085    0.3915   -1.025   0       0    absolute yes


