data_MEI

_audit_creation_method RASPA-1.0
_audit_creation_date 2011-12-20
_audit_author_name 'David Dubbeldam'

_citation_author_name        'S. L. Lawton and W. J. Rohrbaugh'
_citation_title              'The framework topology of ZSM-18, a novel zeolite containing rings of three (Si,Al)-O species'
_citation_journal_abbrev     'Science'
_citation_journal_volume     247
_citation_page_first         1319
_citation_page_last          1322
_citation_year               1990

_cell_length_a    13.175
_cell_length_b    13.175
_cell_length_c    15.848
_cell_angle_alpha 90
_cell_angle_beta  90
_cell_angle_gamma 120
_cell_volume      2382.35

_symmetry_cell_setting          hexagonal
_symmetry_space_group_name_Hall '-P 6c'
_symmetry_space_group_name_H-M  'P 63/m'
_symmetry_Int_Tables_number     176

loop_
_symmetry_equiv_pos_as_xyz
 'x,y,z'
 '-y,x-y,z'
 '-x+y,-x,z'
 '-x,-y,z+1/2'
 'y,-x+y,z+1/2'
 'x-y,x,z+1/2'
 '-x,-y,-z'
 'y,-x+y,-z'
 'x-y,x,-z'
 'x,y,-z+1/2'
 '-y,x-y,-z+1/2'
 '-x+y,-x,-z+1/2'

loop_
_atom_site_label
_atom_site_type_symbol
_atom_site_fract_x
_atom_site_fract_y
_atom_site_fract_z
_atom_site_charge
Si       Si    0.6667       0.3333       0.3495       0
Si       Si    0.6713       0.15         0.47         0
Si       Si    0.4522       0.1161       0.5682       0
Si       Si    0.5266       0.2118       0.75         0
O        O     0.6667       0.3333       0.25         0
O        O     0.6623       0.2169       0.3878       0
O        O     0.5793       0.1388       0.5411       0
O        O     0.4217       0.1984       0.5101       0
O        O     0.454        0.1495       0.6663       0
O        O     0.6506       0.2126       0.75         0
O        O     0.6443       0.02         0.4453       0


