data_MEL

_audit_creation_method RASPA-1.0
_audit_creation_date 2011-3-3
_audit_author_name 'David Dubbeldam'

_citation_author_name        'C.A. Fyfe, H. Gies, G.T. Kokotailo, C. Pasztor, H. Strobl, and D.E. Cox'
_citation_title              'Detailed investigation of the lattice structure of zeolite ZSM-11 by a combination of solid-state NMR and synchrotron x-ray diffraction techniques'
_citation_journal_abbrev     'J. Am. Chem. Soc.'
_citation_journal_volume     111
_citation_page_first         2470
_citation_page_last          2474
_citation_year               1989

_cell_length_a    20.067
_cell_length_b    20.067
_cell_length_c    13.411
_cell_angle_alpha 90
_cell_angle_beta  90
_cell_angle_gamma 90
_cell_volume      5400.4

_symmetry_cell_setting          tetragonal
_symmetry_space_group_name_Hall 'I -4 -2'
_symmetry_space_group_name_H-M  'I -4 m 2'
_symmetry_Int_Tables_number     119

loop_
_symmetry_equiv_pos_as_xyz
 'x,y,z'
 '-x,-y,z'
 'y,-x,-z'
 '-y,x,-z'
 'x,-y,z'
 '-x,y,z'
 'y,x,-z'
 '-y,-x,-z'
 'x+1/2,y+1/2,z+1/2'
 '-x+1/2,-y+1/2,z+1/2'
 'y+1/2,-x+1/2,-z+1/2'
 '-y+1/2,x+1/2,-z+1/2'
 'x+1/2,-y+1/2,z+1/2'
 '-x+1/2,y+1/2,z+1/2'
 'y+1/2,x+1/2,-z+1/2'
 '-y+1/2,-x+1/2,-z+1/2'

loop_
_atom_site_label
_atom_site_type_symbol
_atom_site_fract_x
_atom_site_fract_y
_atom_site_fract_z
_atom_site_charge
_atom_site_polarization
_atom_site_anisotropic_displacement
_atom_site_anisotropic_type
_atom_site_print_to_pdb
Si1      Si     0.0777    0.0777    0         2.05    0       0    absolute yes
Si2      Si     0.1212    0.186     0.1451    2.05    0       0    absolute yes
Si3      Si     0.0775    0.2219    0.3569    2.05    0       0    absolute yes
Si4      Si     0.2801    0.1882    0.1403    2.05    0       0    absolute yes
Si5      Si     0.3053    0.0768   -0.0079    2.05    0       0    absolute yes
Si6      Si     0.1938    0.1938    0.5       2.05    0       0    absolute yes
Si7      Si     0.0761    0.3819    0.3589    2.05    0       0    absolute yes
O1       O      0.0873    0         0.0279   -1.025   0       0    absolute yes
O2       O      0.1067    0.1179    0.0975   -1.025   0       0    absolute yes
O3       O      0.0926    0.1856    0.255    -1.025   0       0    absolute yes
O4       O      0.2018    0.1993    0.1506   -1.025   0       0    absolute yes
O5       O      0.3309    0.1186    0.0889   -1.025   0       0    absolute yes
O6       O      0.3003    0         0.0247   -1.025   0       0    absolute yes
O7       O      0.3095    0.1905    0.25     -1.025   0       0    absolute yes
O8       O      0.1204    0.1931    0.4478   -1.025   0       0    absolute yes
O9       O      0.2511    0.1927    0.4252   -1.025   0       0    absolute yes
O10      O      0.0905    0.301     0.3497   -1.025   0       0    absolute yes
O11      O      0         0.209     0.3875   -1.025   0       0    absolute yes
O12      O      0         0.396     0.3871   -1.025   0       0    absolute yes
O13      O      0.0926    0.2437    0.09     -1.025   0       0    absolute yes
O14      O      0.1295    0.4078    0.4348   -1.025   0       0    absolute yes
O15      O      0.0875    0.4125    0.25     -1.025   0       0    absolute yes


