data_MFS

_audit_creation_method RASPA-1.0
_audit_creation_date 2011-12-20
_audit_author_name 'David Dubbeldam'

_citation_author_name        'J.L. Schlenker, J.B. Higgins and E.W. Valyocsik'
_citation_title              'The framework topology of ZSM-57: a new synthetic zeolite'
_citation_journal_abbrev     'Zeolites'
_citation_journal_volume     10
_citation_page_first         293
_citation_page_last          296
_citation_year               1990

_cell_length_a    7.451
_cell_length_b    14.1711
_cell_length_c    18.767
_cell_angle_alpha 90
_cell_angle_beta  90
_cell_angle_gamma 90
_cell_volume      1981.59

_symmetry_cell_setting          orthorhombic
_symmetry_space_group_name_Hall 'I 2 -2'
_symmetry_space_group_name_H-M  'I m m 2'
_symmetry_Int_Tables_number     44

loop_
_symmetry_equiv_pos_as_xyz
 'x,y,z'
 '-x,-y,z'
 'x,-y,z'
 '-x,y,z'
 'x+1/2,y+1/2,z+1/2'
 '-x+1/2,-y+1/2,z+1/2'
 'x+1/2,-y+1/2,z+1/2'
 '-x+1/2,y+1/2,z+1/2'

loop_
_atom_site_label
_atom_site_type_symbol
_atom_site_fract_x
_atom_site_fract_y
_atom_site_fract_z
_atom_site_charge
Si       Si    0            0            0            0
Si       Si    0            0.2043       0.9486       0
Si       Si    0            0.6998       0.7986       0
Si       Si    0.2941       0            0.1176       0
Si       Si    0.2057       0.1963       0.1848       0
Si       Si    0.2939       0.7017       0.0427       0
Si       Si    0            0.5          0.8668       0
Si       Si    0.2945       0.5          0.9848       0
O        O     0            0.0915       0.9503       0
O        O     0.1754       0            0.0473       0
O        O     0            0.2369       0.8678       0
O        O     0.1755       0.2405       0.9876       0
O        O     0.8255       0.7253       0.7524       0
O        O     0            0.5912       0.8173       0
O        O     0.5          0            0.0946       0
O        O     0.2531       0.0916       0.1632       0
O        O     0            0.2031       0.2079       0
O        O     0.2441       0.2688       0.1221       0
O        O     0.5          0.7234       0.0276       0
O        O     0.5          0.5          0.9611       0
O        O     0.1748       0.5          0.9149       0
O        O     0.257        0.5917       0.0319       0


