data_NaX

_audit_creation_method RASPA-1.0
_audit_creation_date 2011-2-20
_audit_author_name 'David Dubbeldam'

_citation_author_name        'D.H. Olson'
_citation_title              'The crystal structure of dehydrated NaX'
_citation_journal_abbrev     'Zeolites'
_citation_journal_volume     15
_citation_page_first         439
_citation_page_last          443
_citation_year               1995

_cell_length_a    25.099
_cell_length_b    25.099
_cell_length_c    25.099
_cell_angle_alpha 90
_cell_angle_beta  90
_cell_angle_gamma 90
_cell_volume      15811.36

_symmetry_cell_setting          cubic
_symmetry_space_group_name_Hall '-F 2uv 2vw 3'
_symmetry_space_group_name_H-M  'F d -3'
_symmetry_Int_Tables_number     203

loop_
_symmetry_equiv_pos_as_xyz
 'x,y,z'
 '-x+1/4,-y+1/4,z'
 '-x+1/4,y,-z+1/4'
 'x,-y+1/4,-z+1/4'
 'z,x,y'
 'z,-x+1/4,-y+1/4'
 '-z+1/4,-x+1/4,y'
 '-z+1/4,x,-y+1/4'
 'y,z,x'
 '-y+1/4,z,-x+1/4'
 'y,-z+1/4,-x+1/4'
 '-y+1/4,-z+1/4,x'
 '-x,-y,-z'
 'x+3/4,y+3/4,-z'
 'x+3/4,-y,z+3/4'
 '-x,y+3/4,z+3/4'
 '-z,-x,-y'
 '-z,x+3/4,y+3/4'
 'z+3/4,x+3/4,-y'
 'z+3/4,-x,y+3/4'
 '-y,-z,-x'
 'y+3/4,-z,x+3/4'
 '-y,z+3/4,x+3/4'
 'y+3/4,z+3/4,-x'
 'x,y+1/2,z+1/2'
 '-x+1/4,-y+3/4,z+1/2'
 '-x+1/4,y+1/2,-z+3/4'
 'x,-y+3/4,-z+3/4'
 'z,x+1/2,y+1/2'
 'z,-x+3/4,-y+3/4'
 '-z+1/4,-x+3/4,y+1/2'
 '-z+1/4,x+1/2,-y+3/4'
 'y,z+1/2,x+1/2'
 '-y+1/4,z+1/2,-x+3/4'
 'y,-z+3/4,-x+3/4'
 '-y+1/4,-z+3/4,x+1/2'
 '-x,-y+1/2,-z+1/2'
 'x+3/4,y+1/4,-z+1/2'
 'x+3/4,-y+1/2,z+1/4'
 '-x,y+1/4,z+1/4'
 '-z,-x+1/2,-y+1/2'
 '-z,x+1/4,y+1/4'
 'z+3/4,x+1/4,-y+1/2'
 'z+3/4,-x+1/2,y+1/4'
 '-y,-z+1/2,-x+1/2'
 'y+3/4,-z+1/2,x+1/4'
 '-y,z+1/4,x+1/4'
 'y+3/4,z+1/4,-x+1/2'
 'x+1/2,y,z+1/2'
 '-x+3/4,-y+1/4,z+1/2'
 '-x+3/4,y,-z+3/4'
 'x+1/2,-y+1/4,-z+3/4'
 'z+1/2,x,y+1/2'
 'z+1/2,-x+1/4,-y+3/4'
 '-z+3/4,-x+1/4,y+1/2'
 '-z+3/4,x,-y+3/4'
 'y+1/2,z,x+1/2'
 '-y+3/4,z,-x+3/4'
 'y+1/2,-z+1/4,-x+3/4'
 '-y+3/4,-z+1/4,x+1/2'
 '-x+1/2,-y,-z+1/2'
 'x+1/4,y+3/4,-z+1/2'
 'x+1/4,-y,z+1/4'
 '-x+1/2,y+3/4,z+1/4'
 '-z+1/2,-x,-y+1/2'
 '-z+1/2,x+3/4,y+1/4'
 'z+1/4,x+3/4,-y+1/2'
 'z+1/4,-x,y+1/4'
 '-y+1/2,-z,-x+1/2'
 'y+1/4,-z,x+1/4'
 '-y+1/2,z+3/4,x+1/4'
 'y+1/4,z+3/4,-x+1/2'
 'x+1/2,y+1/2,z'
 '-x+3/4,-y+3/4,z'
 '-x+3/4,y+1/2,-z+1/4'
 'x+1/2,-y+3/4,-z+1/4'
 'z+1/2,x+1/2,y'
 'z+1/2,-x+3/4,-y+1/4'
 '-z+3/4,-x+3/4,y'
 '-z+3/4,x+1/2,-y+1/4'
 'y+1/2,z+1/2,x'
 '-y+3/4,z+1/2,-x+1/4'
 'y+1/2,-z+3/4,-x+1/4'
 '-y+3/4,-z+3/4,x'
 '-x+1/2,-y+1/2,-z'
 'x+1/4,y+1/4,-z'
 'x+1/4,-y+1/2,z+3/4'
 '-x+1/2,y+1/4,z+3/4'
 '-z+1/2,-x+1/2,-y'
 '-z+1/2,x+1/4,y+3/4'
 'z+1/4,x+1/4,-y'
 'z+1/4,-x+1/2,y+3/4'
 '-y+1/2,-z+1/2,-x'
 'y+1/4,-z+1/2,x+3/4'
 '-y+1/2,z+1/4,x+3/4'
 'y+1/4,z+1/4,-x'

loop_
_atom_site_label
_atom_site_type_symbol
_atom_site_fract_x
_atom_site_fract_y
_atom_site_fract_z
_atom_site_charge
_atom_site_polarization
Si1      Si4+  -0.05381   0.12565   0.03508   2.05    0
Al1      Al3+  -0.05524   0.03639   0.12418   1.75    0
O1       O2-   -0.1099    0.0003    0.1056   -1.025   0
O2       O2-   -0.0011   -0.0028    0.1416   -1.025   0
O3       O2-   -0.0346    0.0758    0.0711   -1.025   0
O4       O2-   -0.0693    0.0726    0.18     -1.025   0
Oa1      O2-    ?         ?         ?        -1.2     0
Oa2      O2-    ?         ?         ?        -1.2     0
Oa3      O2-    ?         ?         ?        -1.2     0
Oa4      O2-    ?         ?         ?        -1.2     0

