data_RHO

_audit_creation_method RASPA-1.0
_audit_creation_date 2011-3-3
_audit_author_name 'David Dubbeldam'

_citation_author_name        'L.B. McCusker and Ch. Baerlocher'
_citation_title              'The effect of dehydration upon the crystal structure of zeolite rho'
_citation_journal_abbrev     'J. Solid State Chem.'
_citation_page_first         812
_citation_page_last          822
_citation_year               1984
_citation_special_details    'Proceedings of the 6th International Zeolite Conference, Reno 1983'

_cell_length_a    15.031
_cell_length_b    15.031
_cell_length_c    15.031
_cell_angle_alpha 90
_cell_angle_beta  90
_cell_angle_gamma 90
_cell_volume      3395.97

_symmetry_cell_setting          cubic
_symmetry_space_group_name_Hall '-I 4 2 3'
_symmetry_space_group_name_H-M  'I m -3 m'
_symmetry_Int_Tables_number     229

loop_
_symmetry_equiv_pos_as_xyz
 'x,y,z'
 '-x,-y,z'
 '-x,y,-z'
 'x,-y,-z'
 'z,x,y'
 'z,-x,-y'
 '-z,-x,y'
 '-z,x,-y'
 'y,z,x'
 '-y,z,-x'
 'y,-z,-x'
 '-y,-z,x'
 'y,x,-z'
 '-y,-x,-z'
 'y,-x,z'
 '-y,x,z'
 'x,z,-y'
 '-x,z,y'
 '-x,-z,-y'
 'x,-z,y'
 'z,y,-x'
 'z,-y,x'
 '-z,y,x'
 '-z,-y,-x'
 '-x,-y,-z'
 'x,y,-z'
 'x,-y,z'
 '-x,y,z'
 '-z,-x,-y'
 '-z,x,y'
 'z,x,-y'
 'z,-x,y'
 '-y,-z,-x'
 'y,-z,x'
 '-y,z,x'
 'y,z,-x'
 '-y,-x,z'
 'y,x,z'
 '-y,x,-z'
 'y,-x,-z'
 '-x,-z,y'
 'x,-z,-y'
 'x,z,y'
 '-x,z,-y'
 '-z,-y,x'
 '-z,y,-x'
 'z,-y,-x'
 'z,y,x'
 'x+1/2,y+1/2,z+1/2'
 '-x+1/2,-y+1/2,z+1/2'
 '-x+1/2,y+1/2,-z+1/2'
 'x+1/2,-y+1/2,-z+1/2'
 'z+1/2,x+1/2,y+1/2'
 'z+1/2,-x+1/2,-y+1/2'
 '-z+1/2,-x+1/2,y+1/2'
 '-z+1/2,x+1/2,-y+1/2'
 'y+1/2,z+1/2,x+1/2'
 '-y+1/2,z+1/2,-x+1/2'
 'y+1/2,-z+1/2,-x+1/2'
 '-y+1/2,-z+1/2,x+1/2'
 'y+1/2,x+1/2,-z+1/2'
 '-y+1/2,-x+1/2,-z+1/2'
 'y+1/2,-x+1/2,z+1/2'
 '-y+1/2,x+1/2,z+1/2'
 'x+1/2,z+1/2,-y+1/2'
 '-x+1/2,z+1/2,y+1/2'
 '-x+1/2,-z+1/2,-y+1/2'
 'x+1/2,-z+1/2,y+1/2'
 'z+1/2,y+1/2,-x+1/2'
 'z+1/2,-y+1/2,x+1/2'
 '-z+1/2,y+1/2,x+1/2'
 '-z+1/2,-y+1/2,-x+1/2'
 '-x+1/2,-y+1/2,-z+1/2'
 'x+1/2,y+1/2,-z+1/2'
 'x+1/2,-y+1/2,z+1/2'
 '-x+1/2,y+1/2,z+1/2'
 '-z+1/2,-x+1/2,-y+1/2'
 '-z+1/2,x+1/2,y+1/2'
 'z+1/2,x+1/2,-y+1/2'
 'z+1/2,-x+1/2,y+1/2'
 '-y+1/2,-z+1/2,-x+1/2'
 'y+1/2,-z+1/2,x+1/2'
 '-y+1/2,z+1/2,x+1/2'
 'y+1/2,z+1/2,-x+1/2'
 '-y+1/2,-x+1/2,z+1/2'
 'y+1/2,x+1/2,z+1/2'
 '-y+1/2,x+1/2,-z+1/2'
 'y+1/2,-x+1/2,-z+1/2'
 '-x+1/2,-z+1/2,y+1/2'
 'x+1/2,-z+1/2,-y+1/2'
 'x+1/2,z+1/2,y+1/2'
 '-x+1/2,z+1/2,-y+1/2'
 '-z+1/2,-y+1/2,x+1/2'
 '-z+1/2,y+1/2,-x+1/2'
 'z+1/2,-y+1/2,-x+1/2'
 'z+1/2,y+1/2,x+1/2'

loop_
_atom_site_label
_atom_site_type_symbol
_atom_site_fract_x
_atom_site_fract_y
_atom_site_fract_z
_atom_site_charge
_atom_site_polarization
_atom_site_anisotropic_displacement
_atom_site_anisotropic_type
_atom_site_print_to_pdb
Si1      Si     0.25      0.1042    0.3958    2.05    0       0    absolute yes
O1       O      0.2107    0         0.3834   -1.025   0       0    absolute yes
O2       O      0.1652    0.1652    0.3654   -1.025   0       0    absolute yes


