data_STF

_audit_creation_method RASPA-1.0
_audit_creation_date 2011-3-3
_audit_author_name 'David Dubbeldam'

_citation_author_name        'P. Wagner, S.I. Zones, M.E. Davis, and R.C. Medrud'
_citation_title              'SSZ-35 and SSZ-44: Two related zeolites containing pores circumscribed by ten- and eighteen-membered rings'
_citation_journal_abbrev     'Angew. Chem. Int. Ed.'
_citation_journal_volume     38
_citation_page_first         1269
_citation_page_last          1272
_citation_year               1999

_cell_length_a    11.4114
_cell_length_b    11.5268
_cell_length_c    7.377
_cell_angle_alpha 94.661
_cell_angle_beta  96.206
_cell_angle_gamma 104.892
_cell_volume      926.236

_symmetry_cell_setting          triclinic
_symmetry_space_group_name_Hall '-P 1'
_symmetry_space_group_name_H-M  'P -1'
_symmetry_Int_Tables_number     2

loop_
_symmetry_equiv_pos_as_xyz
 'x,y,z'
 '-x,-y,-z'

loop_
_atom_site_label
_atom_site_type_symbol
_atom_site_fract_x
_atom_site_fract_y
_atom_site_fract_z
_atom_site_charge
_atom_site_polarization
_atom_site_anisotropic_displacement
_atom_site_anisotropic_type
_atom_site_print_to_pdb
Si1      Si     0.36019   0.3563    0.61106   2.05    0       0    absolute yes
Si2      Si     0.41221   0.42852   0.21918   2.05    0       0    absolute yes
Si3      Si     0.14209   0.64205   0.40966   2.05    0       0    absolute yes
Si4      Si     0.36181   0.85678   0.57148   2.05    0       0    absolute yes
Si5      Si     0.13396   0.44151   0.67151   2.05    0       0    absolute yes
Si6      Si     0.23859   0.56731   0.04636   2.05    0       0    absolute yes
Si7      Si     0.46001   0.75796   0.92351   2.05    0       0    absolute yes
Si8      Si     0.55968   0.87468   0.30376   2.05    0       0    absolute yes
O1       O      0.36502   0.37709   0.40067  -1.025   0       0    absolute yes
O2       O      0.23168   0.36461   0.67114  -1.025   0       0    absolute yes
O3       O      0.47018   0.4577    0.73017  -1.025   0       0    absolute yes
O4       O      0.37472   0.2251    0.64375  -1.025   0       0    absolute yes
O5       O      0.30673   0.47043   0.10734  -1.025   0       0    absolute yes
O6       O      0.4489    0.32523   0.09908  -1.025   0       0    absolute yes
O7       O      0.22725   0.77005   0.5079   -1.025   0       0    absolute yes
O8       O      0.16588   0.54074   0.5323   -1.025   0       0    absolute yes
O9       O      0.17639   0.61558   0.20899  -1.025   0       0    absolute yes
O10      O      0.00178   0.64477   0.39598  -1.025   0       0    absolute yes
O11      O      0.43707   0.85788   0.39827  -1.025   0       0    absolute yes
O12      O      0.35217   0.99191   0.62479  -1.025   0       0    absolute yes
O13      O      0.43055   0.81119   0.73707  -1.025   0       0    absolute yes
O14      O      0.13629   0.50548   0.87315  -1.025   0       0    absolute yes
O15      O      0.33382   0.67945   0.9804   -1.025   0       0    absolute yes
O16      O      0.52218   0.86584   0.08546  -1.025   0       0    absolute yes


