data_TON

_audit_creation_method RASPA-1.0
_audit_creation_date 2011-3-3
_audit_author_name 'David Dubbeldam'

_citation_author_name        'B. Marler'
_citation_title              'Silica-ZSM-22: synthesis and single crystal structure refinement'
_citation_journal_abbrev     'Zeolites'
_citation_journal_volume     7
_citation_page_first         393
_citation_page_last          397
_citation_year               1987

_cell_length_a    13.859
_cell_length_b    17.42
_cell_length_c    5.038
_cell_angle_alpha 90
_cell_angle_beta  90
_cell_angle_gamma 90
_cell_volume      1216.29

_symmetry_cell_setting          orthorhombic
_symmetry_space_group_name_Hall 'C 2c -2'
_symmetry_space_group_name_H-M  'C m c 21'
_symmetry_Int_Tables_number     36

loop_
_symmetry_equiv_pos_as_xyz
 'x,y,z'
 '-x,-y,z+1/2'
 'x,-y,z+1/2'
 '-x,y,z'
 'x+1/2,y+1/2,z'
 '-x+1/2,-y+1/2,z+1/2'
 'x+1/2,-y+1/2,z+1/2'
 '-x+1/2,y+1/2,z'

loop_
_atom_site_label
_atom_site_type_symbol
_atom_site_fract_x
_atom_site_fract_y
_atom_site_fract_z
_atom_site_charge
_atom_site_polarization
_atom_site_anisotropic_displacement
_atom_site_anisotropic_type
_atom_site_print_to_pdb
Si1      Si     0         0.2737    0.25      2.05    0       0    absolute yes
Si2      Si     0         0.3768    0.7465    2.05    0       0    absolute yes
Si3      Si     0.2951    0.0482    0.2265    2.05    0       0    absolute yes
Si4      Si     0.2055    0.2112    0.1445    2.05    0       0    absolute yes
O1       O      0.0923    0.4268    0.6977   -1.025   0       0    absolute yes
O2       O      0.0942    0.2224    0.2068   -1.025   0       0    absolute yes
O3       O      0.2712    0.3789    0.6639   -1.025   0       0    absolute yes
O4       O      0.2288    0.48      0.0234   -1.025   0       0    absolute yes
O5       O      0.2705    0.2584    0.3535   -1.025   0       0    absolute yes
O6       O      0         0.3062    0.5441   -1.025   0       0    absolute yes
O7       O      0         0.345     0.0493   -1.025   0       0    absolute yes


