data_VFI

_audit_creation_method RASPA-1.0
_audit_creation_date 2011-12-20
_audit_author_name 'David Dubbeldam'

_citation_author_name        'L.B. McCusker, Ch. Baerlocher, E. Jahn and M. Bulow"'
_citation_title              'The triple helix inside the large-pore aluminophosphate molecular sieve VPI-5'
_citation_journal_abbrev     'Zeolites'
_citation_journal_volume     11
_citation_page_first         308
_citation_page_last          313
_citation_year               1991

_cell_length_a    18.9752
_cell_length_b    18.9752
_cell_length_c    8.1044
_cell_angle_alpha 90
_cell_angle_beta  90
_cell_angle_gamma 120
_cell_volume      2527.11

_symmetry_cell_setting          hexagonal
_symmetry_space_group_name_Hall 'P 6c'
_symmetry_space_group_name_H-M  'P 63'
_symmetry_Int_Tables_number     173

loop_
_symmetry_equiv_pos_as_xyz
 'x,y,z'
 '-y,x-y,z'
 '-x+y,-x,z'
 '-x,-y,z+1/2'
 'y,-x+y,z+1/2'
 'x-y,x,z+1/2'

loop_
_atom_site_label
_atom_site_type_symbol
_atom_site_fract_x
_atom_site_fract_y
_atom_site_fract_z
_atom_site_charge
Al1      Al     0.385       -0.001        0.239        0
Al2      Al     0.474       -0.173        0.204        0
Al3      Al     0.654        0.169        0.198        0
P1       P      0.55        -0.001        0.358        0
P2       P      0.311       -0.185        0.32         0
P3       P      0.507        0.185        0.309        0
O1       O      0.47         0.001        0.339        0
O2       O      0.431        0.009        0.037        0
O3       O      0.322       -0.112        0.223        0
O4       O      0.43         0.111        0.255        0
O5       O      0.54        -0.074        0.264        0
O6       O      0.619        0.072        0.278        0
O7       O      0.512       -0.231        0.28         0
O8       O      0.378       -0.206        0.28         0
O9       O      0.474       -0.175       -0.015        0
O10      O      0.311       -0.168        0.5          0
O11      O      0.575        0.195        0.198        0
O12      O      0.739        0.236        0.315        0


